
     Program PWSCF v.7.0 starts on 24Aug2022 at 18:31:52 
        Git branch: HEAD
        Last git commit: bcbb9787c58f17a467653707917172ffc4053dd9-dirty
        Last git commit date: Tue Dec 21 10:27:04 2021 +0000
        Last git commit subject: Merge branch pw2gt_cmplx into develop         

     This program is part of the open-source Quantum ESPRESSO suite
     for quantum simulation of materials; please cite
         "P. Giannozzi et al., J. Phys.:Condens. Matter 21 395502 (2009);
         "P. Giannozzi et al., J. Phys.:Condens. Matter 29 465901 (2017);
         "P. Giannozzi et al., J. Chem. Phys. 152 154105 (2020);
          URL http://www.quantum-espresso.org", 
     in publications or presentations arising from this work. More details at
     http://www.quantum-espresso.org/quote

     Parallel version (MPI & OpenMP), running on       6 processor cores
     Number of MPI processes:                 1
     Threads/MPI process:                     6

     MPI processes distributed on     1 nodes
     12667 MiB available memory on the printing compute node when the environment starts

     Reading input from nscf.in

     Current dimensions of program PWSCF are:
     Max number of different atomic species (ntypx) = 10
     Max number of k-points (npk) =  40000
     Max angular momentum in pseudopotentials (lmaxx) =  4

     Subspace diagonalization in iterative solution of the eigenvalue problem:
     a serial algorithm will be used


     G-vector sticks info
     --------------------
     sticks:   dense  smooth     PW     G-vecs:    dense   smooth      PW
     Sum        1333     877    253               201961   109663   17045

     Using Slab Decomposition



     bravais-lattice index     =            4
     lattice parameter (alat)  =       7.3132  a.u.
     unit-cell volume          =    1750.5683 (a.u.)^3
     number of atoms/cell      =            2
     number of atomic types    =            1
     number of electrons       =         8.00
     number of Kohn-Sham states=          100
     kinetic-energy cutoff     =      60.0000  Ry
     charge density cutoff     =     360.0000  Ry
     scf convergence threshold =      1.0E-08
     mixing beta               =       0.2500
     number of iterations used =            8  plain     mixing
     Exchange-correlation= PBE
                           (   1   4   3   4   0   0   0)
     Non magnetic calculation with spin-orbit


     celldm(1)=   7.313240  celldm(2)=   0.000000  celldm(3)=   5.167959
     celldm(4)=   0.000000  celldm(5)=   0.000000  celldm(6)=   0.000000

     crystal axes: (cart. coord. in units of alat)
               a(1) = (   1.000000   0.000000   0.000000 )  
               a(2) = (  -0.500000   0.866025   0.000000 )  
               a(3) = (   0.000000   0.000000   5.167959 )  

     reciprocal axes: (cart. coord. in units 2 pi/alat)
               b(1) = (  1.000000  0.577350 -0.000000 )  
               b(2) = (  0.000000  1.154701  0.000000 )  
               b(3) = (  0.000000 -0.000000  0.193500 )  


     PseudoPot. # 1 for Si read from file:
     ../../pseudos/ONCVPSP/abinit/Si_ONCV_PBE_fr.upf
     MD5 check sum: dec843b60d969cba929ba255abf5e6d3
     Pseudo is Norm-conserving + core correction, Zval =  4.0
     Generated using ONCVPSP code by D. R. Hamann
     Using radial grid of 1528 points, 10 beta functions with: 
                l(1) =   0
                l(2) =   0
                l(3) =   1
                l(4) =   1
                l(5) =   1
                l(6) =   1
                l(7) =   2
                l(8) =   2
                l(9) =   2
               l(10) =   2

     atomic species   valence    mass     pseudopotential
        Si             4.00    28.08500     Si( 1.00)

     12 Sym. Ops., with inversion, found



   Cartesian axes

     site n.     atom                  positions (alat units)
         1           Si  tau(   1) = (  -0.0000000   0.5773503  -0.0580258  )
         2           Si  tau(   2) = (   0.5000000   0.2886751   0.0580258  )

     number of k points=    61
                       cart. coord. in units 2pi/alat
        k(    1) = (   0.0000000   0.0000000   0.0000000), wk =   0.0163934
        k(    2) = (   0.0111111   0.0192450   0.0000000), wk =   0.0163934
        k(    3) = (   0.0222222   0.0384900   0.0000000), wk =   0.0163934
        k(    4) = (   0.0333333   0.0577350   0.0000000), wk =   0.0163934
        k(    5) = (   0.0444444   0.0769800   0.0000000), wk =   0.0163934
        k(    6) = (   0.0555556   0.0962250   0.0000000), wk =   0.0163934
        k(    7) = (   0.0666667   0.1154701   0.0000000), wk =   0.0163934
        k(    8) = (   0.0777778   0.1347151   0.0000000), wk =   0.0163934
        k(    9) = (   0.0888889   0.1539601   0.0000000), wk =   0.0163934
        k(   10) = (   0.1000000   0.1732051   0.0000000), wk =   0.0163934
        k(   11) = (   0.1111111   0.1924501   0.0000000), wk =   0.0163934
        k(   12) = (   0.1222222   0.2116951   0.0000000), wk =   0.0163934
        k(   13) = (   0.1333333   0.2309401   0.0000000), wk =   0.0163934
        k(   14) = (   0.1444444   0.2501851   0.0000000), wk =   0.0163934
        k(   15) = (   0.1555556   0.2694301   0.0000000), wk =   0.0163934
        k(   16) = (   0.1666667   0.2886751   0.0000000), wk =   0.0163934
        k(   17) = (   0.1777778   0.3079201   0.0000000), wk =   0.0163934
        k(   18) = (   0.1888889   0.3271652   0.0000000), wk =   0.0163934
        k(   19) = (   0.2000000   0.3464102   0.0000000), wk =   0.0163934
        k(   20) = (   0.2111111   0.3656552   0.0000000), wk =   0.0163934
        k(   21) = (   0.2222222   0.3849002   0.0000000), wk =   0.0163934
        k(   22) = (   0.2333333   0.4041452   0.0000000), wk =   0.0163934
        k(   23) = (   0.2444444   0.4233902   0.0000000), wk =   0.0163934
        k(   24) = (   0.2555556   0.4426352   0.0000000), wk =   0.0163934
        k(   25) = (   0.2666667   0.4618802   0.0000000), wk =   0.0163934
        k(   26) = (   0.2777778   0.4811252   0.0000000), wk =   0.0163934
        k(   27) = (   0.2888889   0.5003702   0.0000000), wk =   0.0163934
        k(   28) = (   0.3000000   0.5196152   0.0000000), wk =   0.0163934
        k(   29) = (   0.3111111   0.5388603   0.0000000), wk =   0.0163934
        k(   30) = (   0.3222222   0.5581053   0.0000000), wk =   0.0163934
        k(   31) = (   0.3333333   0.5773503   0.0000000), wk =   0.0163934
        k(   32) = (   0.3222222   0.5773503   0.0000000), wk =   0.0163934
        k(   33) = (   0.3111111   0.5773503   0.0000000), wk =   0.0163934
        k(   34) = (   0.3000000   0.5773503   0.0000000), wk =   0.0163934
        k(   35) = (   0.2888889   0.5773503   0.0000000), wk =   0.0163934
        k(   36) = (   0.2777778   0.5773503   0.0000000), wk =   0.0163934
        k(   37) = (   0.2666667   0.5773503   0.0000000), wk =   0.0163934
        k(   38) = (   0.2555556   0.5773503   0.0000000), wk =   0.0163934
        k(   39) = (   0.2444444   0.5773503   0.0000000), wk =   0.0163934
        k(   40) = (   0.2333333   0.5773503   0.0000000), wk =   0.0163934
        k(   41) = (   0.2222222   0.5773503   0.0000000), wk =   0.0163934
        k(   42) = (   0.2111111   0.5773503   0.0000000), wk =   0.0163934
        k(   43) = (   0.2000000   0.5773503   0.0000000), wk =   0.0163934
        k(   44) = (   0.1888889   0.5773503   0.0000000), wk =   0.0163934
        k(   45) = (   0.1777778   0.5773503   0.0000000), wk =   0.0163934
        k(   46) = (   0.1666667   0.5773503   0.0000000), wk =   0.0163934
        k(   47) = (   0.1555556   0.5773503   0.0000000), wk =   0.0163934
        k(   48) = (   0.1444444   0.5773503   0.0000000), wk =   0.0163934
        k(   49) = (   0.1333333   0.5773503   0.0000000), wk =   0.0163934
        k(   50) = (   0.1222222   0.5773503   0.0000000), wk =   0.0163934
        k(   51) = (   0.1111111   0.5773503   0.0000000), wk =   0.0163934
        k(   52) = (   0.1000000   0.5773503   0.0000000), wk =   0.0163934
        k(   53) = (   0.0888889   0.5773503   0.0000000), wk =   0.0163934
        k(   54) = (   0.0777778   0.5773503   0.0000000), wk =   0.0163934
        k(   55) = (   0.0666667   0.5773503   0.0000000), wk =   0.0163934
        k(   56) = (   0.0555556   0.5773503   0.0000000), wk =   0.0163934
        k(   57) = (   0.0444444   0.5773503   0.0000000), wk =   0.0163934
        k(   58) = (   0.0333333   0.5773503   0.0000000), wk =   0.0163934
        k(   59) = (   0.0222222   0.5773503   0.0000000), wk =   0.0163934
        k(   60) = (   0.0111111   0.5773503   0.0000000), wk =   0.0163934
        k(   61) = (   0.0000000   0.5773503   0.0000000), wk =   0.0163934

     Dense  grid:   201961 G-vectors     FFT dimensions: (  45,  45, 240)

     Smooth grid:   109663 G-vectors     FFT dimensions: (  40,  40, 192)

     Estimated max dynamical RAM per process >       3.07 GB

     Initial potential from superposition of free atoms

     starting charge       7.9988, renormalised to       8.0000

     negative rho (up, down):  5.732E-06 0.000E+00
     Starting wfcs are   16 randomized atomic wfcs +   84 random wfcs

     total cpu time spent up to now is       45.7 secs

     Self-consistent Calculation

     iteration #  1     ecut=    60.00 Ry     beta= 0.25
     Davidson diagonalization with overlap
     ethr =  1.00E-02,  avg # of iterations =  8.2

     Threshold (ethr) on eigenvalues was too large:
     Diagonalizing with lowered threshold

     Davidson diagonalization with overlap
     ethr =  8.10E-04,  avg # of iterations =  1.1

     negative rho (up, down):  3.649E-06 0.000E+00

     total cpu time spent up to now is      434.0 secs

     total energy              =     -16.83183955 Ry
     estimated scf accuracy    <       0.06464122 Ry

     iteration #  2     ecut=    60.00 Ry     beta= 0.25
     Davidson diagonalization with overlap
     ethr =  8.08E-04,  avg # of iterations =  1.5

     negative rho (up, down):  1.061E-05 0.000E+00

     total cpu time spent up to now is      537.4 secs

     total energy              =     -16.82161867 Ry
     estimated scf accuracy    <       0.02823537 Ry

     iteration #  3     ecut=    60.00 Ry     beta= 0.25
     Davidson diagonalization with overlap
     ethr =  3.53E-04,  avg # of iterations =  5.8

     negative rho (up, down):  1.106E-05 0.000E+00

     total cpu time spent up to now is      655.4 secs

     total energy              =     -16.82456769 Ry
     estimated scf accuracy    <       0.00094802 Ry

     iteration #  4     ecut=    60.00 Ry     beta= 0.25
     Davidson diagonalization with overlap
     c_bands:  1 eigenvalues not converged
     ethr =  1.19E-05,  avg # of iterations = 10.0

     negative rho (up, down):  8.526E-06 0.000E+00

     total cpu time spent up to now is      805.4 secs

     total energy              =     -16.82463004 Ry
     estimated scf accuracy    <       0.00006809 Ry

     iteration #  5     ecut=    60.00 Ry     beta= 0.25
     Davidson diagonalization with overlap
     c_bands:  1 eigenvalues not converged
     ethr =  8.51E-07,  avg # of iterations =  3.9

     negative rho (up, down):  6.275E-06 0.000E+00

     total cpu time spent up to now is      917.9 secs

     total energy              =     -16.82464249 Ry
     estimated scf accuracy    <       0.00000975 Ry

     iteration #  6     ecut=    60.00 Ry     beta= 0.25
     Davidson diagonalization with overlap
     ethr =  1.22E-07,  avg # of iterations =  1.0

     negative rho (up, down):  4.601E-06 0.000E+00

     total cpu time spent up to now is     1019.8 secs

     total energy              =     -16.82464389 Ry
     estimated scf accuracy    <       0.00000011 Ry

     iteration #  7     ecut=    60.00 Ry     beta= 0.25
     Davidson diagonalization with overlap
     ethr =  1.38E-09,  avg # of iterations =  2.0

     negative rho (up, down):  3.356E-06 0.000E+00

     total cpu time spent up to now is     1129.2 secs

     total energy              =     -16.82464386 Ry
     estimated scf accuracy    <       0.00000016 Ry

     iteration #  8     ecut=    60.00 Ry     beta= 0.25
     Davidson diagonalization with overlap
     ethr =  1.38E-09,  avg # of iterations =  1.0

     total cpu time spent up to now is     1231.0 secs

     End of self-consistent calculation

          k = 0.0000 0.0000 0.0000 ( 13587 PWs)   bands (ev):

   -13.9350 -13.9350  -6.0023  -6.0023  -4.1358  -4.1358  -4.1019  -4.1019
    -1.0271  -1.0271  -0.2643  -0.2643   0.1175   0.1175   0.1366   0.1366
     1.4971   1.4971   1.7273   1.7273   2.6257   2.6257   2.9043   2.9043
     4.0449   4.0449   5.1811   5.1811   5.6497   5.6497   5.8655   5.8655
     5.8984   5.8984   5.9009   5.9009   8.2555   8.2555   8.5390   8.5390
     9.0001   9.0001   9.0008   9.0008  10.8404  10.8404  12.2654  12.2654
    12.3413  12.3413  13.0505  13.0505  13.0528  13.0528  13.4750  13.4750
    13.8716  13.8716  13.8733  13.8733  14.5313  14.5313  14.6155  14.6155
    14.7032  14.7032  14.7036  14.7036  14.9628  14.9628  14.9629  14.9629
    15.0965  15.0965  15.1573  15.1574  15.1576  15.1576  15.2098  15.2098
    15.2100  15.2100  15.2917  15.2917  15.3247  15.3247  16.0990  16.0992
    16.1634  16.1636  16.1640  16.1640  16.1642  16.1644  16.1752  16.1753
    16.1754  16.1756  16.4379  16.4381

          k = 0.0111 0.0192 0.0000 ( 13637 PWs)   bands (ev):

   -13.9306 -13.9306  -5.9990  -5.9990  -4.1656  -4.1656  -4.1198  -4.1198
    -0.9922  -0.9922  -0.2613  -0.2613   0.1200   0.1200   0.1476   0.1476
     1.5019   1.5019   1.7316   1.7316   2.6255   2.6255   2.9092   2.9092
     4.0268   4.0268   5.1856   5.1856   5.5752   5.5752   5.8809   5.8809
     5.8863   5.8863   6.0004   6.0004   8.2534   8.2534   8.5454   8.5454
     8.9765   8.9765   9.0210   9.0210  10.8907  10.8907  12.2690  12.2690
    12.3303  12.3303  12.8495  12.8495  12.9860  12.9860  13.6183  13.6183
    13.7968  13.7968  13.9593  13.9593  14.2579  14.2579  14.5061  14.5061
    14.6459  14.6459  14.7083  14.7083  14.8261  14.8261  14.8453  14.8453
    14.9258  14.9258  15.1815  15.1815  15.1899  15.1899  15.2382  15.2382
    15.4830  15.4830  15.6281  15.6281  15.6774  15.6774  15.7302  15.7302
    15.7719  15.7719  15.9850  15.9850  16.0513  16.0513  16.2782  16.2783
    16.3363  16.3369  16.4121  16.4123

          k = 0.0222 0.0385 0.0000 ( 13649 PWs)   bands (ev):

   -13.9177 -13.9177  -5.9894  -5.9894  -4.2724  -4.2724  -4.1496  -4.1496
    -0.8965  -0.8965  -0.2524  -0.2524   0.1136   0.1136   0.1976   0.1976
     1.5164   1.5164   1.7447   1.7447   2.6240   2.6240   2.9236   2.9236
     3.9736   3.9736   5.1990   5.1990   5.4661   5.4661   5.8461   5.8461
     5.9390   5.9390   6.1758   6.1758   8.2464   8.2464   8.5641   8.5641
     8.9165   8.9165   9.0830   9.0830  11.0292  11.0292  12.2490  12.2490
    12.2789  12.2789  12.5925  12.5925  12.7965  12.7965  13.6880  13.6880
    13.7075  13.7075  13.8501  13.8501  14.1416  14.1416  14.2165  14.2165
    14.3416  14.3416  14.3632  14.3632  14.8556  14.8556  14.8968  14.8968
    14.9858  14.9858  15.1966  15.1966  15.2508  15.2508  15.3190  15.3190
    15.3687  15.3687  15.6081  15.6081  15.6298  15.6298  15.7516  15.7516
    15.8914  15.8914  16.0679  16.0679  16.1092  16.1092  16.2813  16.2814
    16.3473  16.3473  16.4639  16.4644

          k = 0.0333 0.0577 0.0000 ( 13659 PWs)   bands (ev):

   -13.8962 -13.8962  -5.9740  -5.9740  -4.4399  -4.4399  -4.1918  -4.1918
    -0.7618  -0.7618  -0.2381  -0.2381   0.1008   0.1008   0.2926   0.2926
     1.5406   1.5406   1.7662   1.7662   2.6187   2.6187   2.9477   2.9477
     3.8901   3.8901   5.2209   5.2209   5.3836   5.3836   5.7795   5.7795
     6.0353   6.0353   6.3659   6.3659   8.2321   8.2321   8.5934   8.5934
     8.8461   8.8461   9.1872   9.1872  11.2234  11.2234  11.9978  11.9978
    12.2875  12.2875  12.5117  12.5117  12.5288  12.5288  13.4366  13.4366
    13.6088  13.6088  13.6395  13.6395  13.8654  13.8654  13.8813  13.8813
    13.9913  13.9913  14.6373  14.6373  14.8014  14.8014  14.8583  14.8583
    14.9484  14.9484  14.9734  14.9734  15.1653  15.1653  15.2522  15.2522
    15.2582  15.2582  15.3179  15.3179  15.5828  15.5828  16.0461  16.0461
    16.2135  16.2135  16.2863  16.2863  16.3792  16.3793  16.4782  16.4785
    16.5340  16.5343  16.5671  16.5674

          k = 0.0444 0.0770 0.0000 ( 13667 PWs)   bands (ev):

   -13.8660 -13.8660  -5.9543  -5.9543  -4.6468  -4.6468  -4.2492  -4.2492
    -0.6143  -0.6143  -0.2191  -0.2191   0.0862   0.0862   0.4399   0.4399
     1.5744   1.5744   1.7955   1.7955   2.6052   2.6052   2.9814   2.9814
     3.7875   3.7875   5.2498   5.2498   5.3363   5.3363   5.6878   5.6878
     6.1660   6.1660   6.5579   6.5579   8.2083   8.2083   8.6318   8.6318
     8.7886   8.7886   9.3327   9.3327  11.3848  11.3848  11.7414  11.7414
    12.1621  12.1621  12.3606  12.3606  12.5201  12.5201  13.0417  13.0417
    13.3092  13.3092  13.4205  13.4205  13.4808  13.4808  13.7529  13.7529
    13.8596  13.8596  14.4615  14.4615  14.5246  14.5246  14.6699  14.6699
    14.8896  14.8896  14.9854  14.9854  14.9925  14.9925  15.2400  15.2400
    15.2480  15.2480  15.3024  15.3024  15.8734  15.8734  16.2613  16.2613
    16.3036  16.3037  16.4388  16.4389  16.4450  16.4451  16.6181  16.6183
    16.7104  16.7105  16.7277  16.7279

          k = 0.0556 0.0962 0.0000 ( 13689 PWs)   bands (ev):

   -13.8273 -13.8273  -5.9334  -5.9334  -4.8754  -4.8754  -4.3219  -4.3219
    -0.4745  -0.4745  -0.1970  -0.1970   0.0732   0.0732   0.6452   0.6452
     1.6179   1.6179   1.8313   1.8313   2.5772   2.5772   3.0245   3.0245
     3.6828   3.6828   5.2802   5.2802   5.3219   5.3219   5.5775   5.5775
     6.3253   6.3253   6.7492   6.7492   8.1763   8.1763   8.6785   8.6785
     8.7566   8.7566   9.5155   9.5155  11.2069  11.2069  11.8323  11.8323
    11.8492  11.8492  12.3632  12.3632  12.5347  12.5347  12.6676  12.6676
    12.9547  12.9547  13.0800  13.0800  13.1076  13.1076  13.6808  13.6808
    13.8803  13.8803  14.0751  14.0751  14.1726  14.1726  14.3528  14.3528
    14.5901  14.5901  14.9858  14.9858  15.0617  15.0617  15.2969  15.2969
    15.3158  15.3158  15.6179  15.6179  16.1752  16.1752  16.2266  16.2266
    16.2292  16.2292  16.3220  16.3220  16.4018  16.4018  16.5636  16.5637
    16.6252  16.6253  16.6433  16.6434

          k = 0.0667 0.1155 0.0000 ( 13701 PWs)   bands (ev):

   -13.7801 -13.7801  -5.9189  -5.9189  -5.1075  -5.1075  -4.4093  -4.4093
    -0.3505  -0.3505  -0.1739  -0.1739   0.0658   0.0658   0.9055   0.9055
     1.6710   1.6710   1.8713   1.8713   2.5288   2.5288   3.0772   3.0772
     3.5955   3.5955   5.2839   5.2839   5.3345   5.3345   5.4796   5.4796
     6.5044   6.5044   6.9435   6.9435   8.1412   8.1412   8.7332   8.7332
     8.7516   8.7516   9.7268   9.7268  10.8856  10.8856  11.5289  11.5289
    12.0647  12.0647  12.2166  12.2166  12.4205  12.4205  12.4700  12.4700
    12.6339  12.6339  12.7132  12.7132  12.8766  12.8766  13.6104  13.6104
    13.6920  13.6920  13.6999  13.6999  13.9792  13.9792  14.0860  14.0860
    14.3089  14.3089  15.0228  15.0228  15.1024  15.1024  15.3511  15.3511
    15.3710  15.3710  15.8697  15.8697  15.9005  15.9005  16.0553  16.0553
    16.2024  16.2024  16.2163  16.2163  16.4334  16.4335  16.5188  16.5189
    16.5841  16.5842  16.6705  16.6722

          k = 0.0778 0.1347 0.0000 ( 13705 PWs)   bands (ev):

   -13.7245 -13.7245  -5.9315  -5.9315  -5.3150  -5.3150  -4.5106  -4.5106
    -0.2404  -0.2404  -0.1529  -0.1529   0.0679   0.0679   1.2103   1.2103
     1.7340   1.7340   1.9096   1.9096   2.4611   2.4611   3.1391   3.1391
     3.5403   3.5403   5.1870   5.1870   5.3688   5.3688   5.4718   5.4718
     6.6911   6.6911   7.1493   7.1493   8.1088   8.1088   8.7687   8.7687
     8.7957   8.7957   9.9470   9.9470  10.5598  10.5598  11.2326  11.2326
    11.8694  11.8694  12.1086  12.1086  12.2841  12.2841  12.2842  12.2842
    12.3265  12.3265  12.5136  12.5136  12.9205  12.9205  13.3117  13.3117
    13.3404  13.3404  13.4838  13.4838  13.6630  13.6630  14.1315  14.1315
    14.1499  14.1499  15.0598  15.0598  15.1425  15.1425  15.4058  15.4058
    15.4133  15.4133  15.5427  15.5427  15.5499  15.5499  15.9433  15.9433
    15.9948  15.9948  16.3382  16.3382  16.4206  16.4206  16.6135  16.6135
    16.6185  16.6185  16.7137  16.7142

          k = 0.0889 0.1540 0.0000 ( 13705 PWs)   bands (ev):

   -13.6604 -13.6604  -6.0152  -6.0152  -5.4490  -5.4490  -4.6247  -4.6247
    -0.1435  -0.1435  -0.1326  -0.1326   0.0826   0.0826   1.5464   1.5464
     1.8078   1.8078   1.9327   1.9327   2.3911   2.3911   3.2102   3.2102
     3.5229   3.5229   5.0227   5.0227   5.4206   5.4206   5.5262   5.5262
     6.8717   6.8717   7.3771   7.3771   8.0820   8.0820   8.8020   8.8020
     8.8661   8.8661  10.1247  10.1247  10.2474  10.2474  11.0063  11.0063
    11.5167  11.5167  11.7653  11.7653  11.9263  11.9263  11.9740  11.9740
    12.4496  12.4496  12.5522  12.5522  12.9520  12.9520  12.9797  12.9797
    13.0088  13.0088  13.2464  13.2464  13.4121  13.4121  14.0709  14.0709
    14.2722  14.2722  15.0423  15.0423  15.1500  15.1500  15.1565  15.1565
    15.2347  15.2347  15.4705  15.4705  15.5198  15.5198  15.6992  15.6992
    15.7206  15.7206  16.1326  16.1326  16.5908  16.5908  16.6749  16.6750
    16.7193  16.7193  16.7276  16.7276

          k = 0.1000 0.1732 0.0000 ( 13697 PWs)   bands (ev):

   -13.5881 -13.5881  -6.1932  -6.1932  -5.4828  -5.4828  -4.7502  -4.7502
    -0.1322  -0.1322  -0.0381  -0.0381   0.1107   0.1107   1.8608   1.8608
     1.9154   1.9154   1.9354   1.9354   2.3543   2.3543   3.2901   3.2901
     3.5404   3.5404   4.8379   4.8379   5.4871   5.4871   5.6021   5.6021
     7.0370   7.0370   7.6321   7.6321   8.0596   8.0596   8.8452   8.8452
     8.9441   8.9441   9.9573   9.9573  10.1430  10.1430  10.9343  10.9343
    11.1960  11.1960  11.4204  11.4204  11.5756  11.5756  11.6339  11.6339
    12.5366  12.5366  12.5617  12.5617  12.6261  12.6261  12.6516  12.6516
    12.8746  12.8746  12.9830  12.9830  13.4469  13.4469  14.0690  14.0690
    14.4129  14.4129  14.7812  14.7812  14.8362  14.8362  15.0421  15.0421
    15.1436  15.1436  15.3556  15.3556  15.5369  15.5369  15.6144  15.6144
    15.6457  15.6457  15.8133  15.8133  16.6792  16.6793  16.7124  16.7125
    16.8021  16.8023  16.8157  16.8158

          k = 0.1111 0.1925 0.0000 ( 13693 PWs)   bands (ev):

   -13.5075 -13.5075  -6.4269  -6.4269  -5.4524  -5.4524  -4.8856  -4.8856
    -0.1364  -0.1364   0.0617   0.0617   0.1507   0.1507   1.8503   1.8503
     1.9699   1.9699   2.2875   2.2875   2.3750   2.3750   3.3785   3.3785
     3.5863   3.5863   4.6489   4.6489   5.5663   5.5663   5.6913   5.6913
     7.1855   7.1855   7.9094   7.9094   8.0361   8.0361   8.8915   8.8915
     9.0292   9.0292   9.7001   9.7001   9.9805   9.9805  10.7722  10.7722
    11.0825  11.0825  11.0992  11.0992  11.2357  11.2357  11.3812  11.3812
    12.2330  12.2330  12.2801  12.2801  12.4833  12.4833  12.5463  12.5463
    12.7769  12.7769  12.8238  12.8238  13.6261  13.6261  14.0754  14.0754
    14.3774  14.3774  14.4498  14.4498  14.7261  14.7261  14.8140  14.8140
    14.9882  14.9882  15.0653  15.0653  15.5788  15.5788  15.5963  15.5963
    15.7068  15.7068  15.7375  15.7375  16.7625  16.7625  16.7725  16.7725
    16.8903  16.8903  16.8943  16.8943

          k = 0.1222 0.2117 0.0000 ( 13709 PWs)   bands (ev):

   -13.4189 -13.4189  -6.6819  -6.6819  -5.3908  -5.3908  -5.0293  -5.0293
    -0.1546  -0.1546   0.1644   0.1644   0.2008   0.2008   1.7617   1.7617
     2.0697   2.0697   2.4408   2.4408   2.6569   2.6569   3.4755   3.4755
     3.6549   3.6549   4.4695   4.4695   5.6568   5.6568   5.7916   5.7916
     7.3195   7.3195   8.0024   8.0024   8.1939   8.1939   8.9286   8.9286
     9.1189   9.1189   9.4939   9.4939   9.7634   9.7634  10.4603  10.4603
    10.7538  10.7538  10.8821  10.8821  10.9092  10.9092  11.4772  11.4772
    11.9038  11.9038  11.9434  11.9434  12.2049  12.2049  12.3315  12.3315
    12.8394  12.8394  12.8601  12.8601  13.8014  13.8014  14.0394  14.0394
    14.0937  14.0937  14.1235  14.1235  14.5123  14.5123  14.6030  14.6030
    14.8749  14.8749  14.9437  14.9437  15.6001  15.6001  15.6759  15.6759
    15.7985  15.7985  15.8579  15.8579  16.8286  16.8286  16.8396  16.8397
    16.8946  16.8946  16.9836  16.9837

          k = 0.1333 0.2309 0.0000 ( 13727 PWs)   bands (ev):

   -13.3222 -13.3222  -6.9436  -6.9436  -5.3115  -5.3115  -5.1795  -5.1795
    -0.1920  -0.1920   0.2562   0.2562   0.2751   0.2751   1.6808   1.6808
     2.1759   2.1759   2.5340   2.5340   2.9995   2.9995   3.5854   3.5854
     3.7420   3.7420   4.3223   4.3223   5.7576   5.7576   5.9023   5.9023
     7.4408   7.4408   7.9466   7.9466   8.4527   8.4527   8.9353   8.9353
     9.2013   9.2013   9.3667   9.3667   9.5836   9.5836  10.1492  10.1492
    10.4355  10.4355  10.5756  10.5756  10.5997  10.5997  11.5370  11.5370
    11.6161  11.6161  11.6410  11.6410  11.9095  11.9095  12.1844  12.1844
    12.8862  12.8862  12.9642  12.9642  13.7451  13.7451  13.7908  13.7908
    13.9090  13.9090  13.9851  13.9851  14.2326  14.2326  14.2511  14.2511
    14.7799  14.7799  15.1774  15.1774  15.6728  15.6728  15.7997  15.7997
    15.9082  15.9082  15.9994  15.9994  16.6667  16.6667  16.7952  16.7953
    16.8968  16.8970  16.9042  16.9043

          k = 0.1444 0.2502 0.0000 ( 13737 PWs)   bands (ev):

   -13.2178 -13.2178  -7.2058  -7.2058  -5.3353  -5.3353  -5.2190  -5.2190
    -0.2540  -0.2540   0.3245   0.3245   0.3872   0.3872   1.6264   1.6264
     2.2879   2.2879   2.6452   2.6452   3.2450   3.2450   3.7296   3.7296
     3.8445   3.8445   4.2552   4.2552   5.8679   5.8679   6.0231   6.0231
     7.5480   7.5480   7.8590   7.8590   8.6116   8.6116   8.9013   8.9013
     9.2477   9.2477   9.3303   9.3303   9.5346   9.5346   9.8678   9.8678
    10.1285  10.1285  10.2737  10.2737  10.3144  10.3144  11.2500  11.2500
    11.2986  11.2986  11.5065  11.5065  11.6221  11.6221  12.2201  12.2201
    12.9116  12.9116  13.0675  13.0675  13.4446  13.4446  13.4774  13.4774
    13.6574  13.6574  13.9005  13.9005  14.0002  14.0002  14.2151  14.2151
    14.7839  14.7839  15.3987  15.3987  15.7713  15.7713  15.9358  15.9358
    16.0286  16.0286  16.1199  16.1199  16.4543  16.4543  16.5101  16.5101
    16.8516  16.8516  16.8522  16.8522

          k = 0.1556 0.2694 0.0000 ( 13741 PWs)   bands (ev):

   -13.1058 -13.1058  -7.4654  -7.4654  -5.4937  -5.4937  -5.1170  -5.1170
    -0.3438  -0.3438   0.4012   0.4012   0.5065   0.5065   1.6075   1.6075
     2.4024   2.4024   2.7705   2.7705   3.3118   3.3118   3.9095   3.9095
     3.9606   3.9606   4.3480   4.3480   5.9869   5.9869   6.1537   6.1537
     7.6343   7.6343   7.7402   7.7402   8.5929   8.5929   8.8520   8.8520
     9.3015   9.3015   9.3414   9.3414   9.4710   9.4710   9.7596   9.7596
     9.8344   9.8344  10.0236  10.0236  10.0686  10.0686  10.9505  10.9505
    10.9911  10.9911  11.2804  11.2804  11.3496  11.3496  12.1905  12.1905
    12.9209  12.9209  13.1211  13.1211  13.1702  13.1702  13.1742  13.1742
    13.4801  13.4801  13.6808  13.6808  13.8880  13.8880  14.3547  14.3547
    14.8534  14.8534  15.5793  15.5793  15.8762  15.8762  16.0116  16.0116
    16.0821  16.0821  16.1515  16.1515  16.2312  16.2312  16.4370  16.4370
    16.7105  16.7105  16.7348  16.7348

          k = 0.1667 0.2887 0.0000 ( 13729 PWs)   bands (ev):

   -12.9863 -12.9863  -7.7208  -7.7208  -5.6541  -5.6541  -5.0062  -5.0062
    -0.4605  -0.4605   0.4881   0.4881   0.6322   0.6322   1.6258   1.6258
     2.5110   2.5110   2.9081   2.9081   3.2535   3.2535   4.0655   4.0655
     4.0889   4.0889   4.6091   4.6091   6.1133   6.1133   6.2939   6.2939
     7.6047   7.6047   7.6836   7.6836   8.4729   8.4729   8.7989   8.7989
     9.1880   9.1880   9.3339   9.3339   9.4258   9.4258   9.5618   9.5618
     9.6175   9.6175   9.8949   9.8949  10.0854  10.0854  10.6698  10.6698
    10.6939  10.6939  11.0515  11.0515  11.0982  11.0982  11.9393  11.9393
    12.8430  12.8430  12.8642  12.8642  12.9242  12.9242  13.1342  13.1342
    13.4529  13.4529  13.5646  13.5646  13.9194  13.9194  14.5080  14.5080
    14.9603  14.9603  15.6197  15.6197  15.8762  15.8762  15.8816  15.8816
    16.0437  16.0437  16.1887  16.1887  16.2958  16.2958  16.3925  16.3925
    16.5511  16.5511  16.6222  16.6222

          k = 0.1778 0.3079 0.0000 ( 13735 PWs)   bands (ev):

   -12.8597 -12.8597  -7.9709  -7.9709  -5.8148  -5.8148  -4.8874  -4.8874
    -0.5998  -0.5998   0.5860   0.5860   0.7645   0.7645   1.6786   1.6786
     2.5909   2.5909   3.0569   3.0569   3.1725   3.1725   4.2126   4.2126
     4.2285   4.2285   4.9314   4.9314   6.2456   6.2456   6.4437   6.4437
     7.4764   7.4764   7.6693   7.6693   8.3563   8.3563   8.7208   8.7208
     8.9341   8.9341   9.2073   9.2073   9.3384   9.3384   9.3769   9.3769
     9.5129   9.5129   9.8271   9.8271  10.2016  10.2016  10.4073  10.4073
    10.4626  10.4626  10.8764  10.8764  10.9067  10.9067  11.5997  11.5997
    12.5572  12.5572  12.5926  12.5926  12.7904  12.7904  12.9635  12.9635
    13.5477  13.5477  13.6152  13.6152  14.0789  14.0789  14.6637  14.6637
    15.0913  15.0913  15.4117  15.4117  15.6260  15.6260  15.8897  15.8897
    16.0778  16.0778  16.1802  16.1802  16.3901  16.3901  16.4069  16.4069
    16.4538  16.4538  16.5036  16.5037

          k = 0.1889 0.3272 0.0000 ( 13723 PWs)   bands (ev):

   -12.7262 -12.7262  -8.2149  -8.2149  -5.9744  -5.9744  -4.7615  -4.7615
    -0.7559  -0.7559   0.6949   0.6949   0.9031   0.9031   1.7609   1.7609
     2.5953   2.5953   3.1549   3.1549   3.2165   3.2165   4.3682   4.3682
     4.3786   4.3786   5.2362   5.2362   6.3804   6.3804   6.6029   6.6029
     7.3864   7.3864   7.5779   7.5779   8.2691   8.2691   8.5928   8.5928
     8.6974   8.6974   8.9642   8.9642   9.0786   9.0786   9.3036   9.3036
     9.5431   9.5431   9.8377   9.8377  10.0244  10.0244  10.1335  10.1335
    10.3365  10.3365  10.6983  10.6983  10.9745  10.9745  11.3377  11.3377
    12.2804  12.2804  12.3251  12.3251  12.6044  12.6044  12.7431  12.7431
    13.6849  13.6849  13.7342  13.7342  14.2923  14.2923  14.8129  14.8129
    15.1638  15.1638  15.2415  15.2415  15.3610  15.3610  15.7577  15.7577
    16.0262  16.0263  16.1295  16.1295  16.3134  16.3134  16.4671  16.4671
    16.5958  16.5958  16.6350  16.6351

          k = 0.2000 0.3464 0.0000 ( 13739 PWs)   bands (ev):

   -12.5862 -12.5862  -8.4523  -8.4523  -6.1315  -6.1315  -4.6290  -4.6290
    -0.9234  -0.9234   0.8148   0.8148   1.0476   1.0476   1.8678   1.8678
     2.5080   2.5080   3.2336   3.2336   3.3864   3.3864   4.5349   4.5349
     4.5385   4.5385   5.4698   5.4698   6.5105   6.5105   6.7720   6.7720
     7.3720   7.3720   7.4374   7.4374   8.1573   8.1573   8.4179   8.4179
     8.5034   8.5034   8.7121   8.7121   8.8290   8.8290   9.2611   9.2611
     9.5098   9.5098   9.7736   9.7736   9.8253   9.8253   9.9185   9.9185
    10.1421  10.1421  10.5842  10.5842  10.9327  10.9327  11.4388  11.4388
    12.0132  12.0132  12.0806  12.0806  12.4162  12.4162  12.5216  12.5216
    13.8297  13.8297  13.8730  13.8730  14.4791  14.4791  14.8276  14.8276
    15.0511  15.0511  15.1028  15.1028  15.4144  15.4144  15.5582  15.5582
    15.9146  15.9146  15.9567  15.9567  16.4455  16.4455  16.6099  16.6099
    16.7647  16.7648  16.7965  16.7965

          k = 0.2111 0.3657 0.0000 ( 13751 PWs)   bands (ev):

   -12.4402 -12.4402  -8.6827  -8.6827  -6.2848  -6.2848  -4.4906  -4.4906
    -1.0975  -1.0975   0.9453   0.9453   1.1973   1.1973   1.9951   1.9951
     2.3737   2.3737   3.3721   3.3721   3.5665   3.5665   4.7074   4.7074
     4.7125   4.7125   5.5915   5.5915   6.6172   6.6172   6.9512   6.9512
     7.2969   7.2969   7.4589   7.4589   7.9780   7.9780   8.2196   8.2196
     8.3285   8.3285   8.4727   8.4727   8.5944   8.5944   9.2170   9.2170
     9.4062   9.4062   9.5345   9.5345   9.5978   9.5978   9.9286   9.9286
     9.9401   9.9401  10.5503  10.5503  10.8633  10.8633  11.6028  11.6028
    11.7561  11.7561  11.9128  11.9128  12.3128  12.3128  12.3137  12.3137
    13.9723  13.9723  14.0138  14.0138  14.5745  14.5745  14.6050  14.6050
    14.8618  14.8618  15.1692  15.1692  15.3714  15.3714  15.6069  15.6069
    15.6870  15.6870  15.9518  15.9518  16.6106  16.6106  16.7778  16.7778
    16.9453  16.9454  16.9625  16.9625

          k = 0.2222 0.3849 0.0000 ( 13755 PWs)   bands (ev):

   -12.2886 -12.2886  -8.9057  -8.9057  -6.4331  -6.4331  -4.3468  -4.3468
    -1.2746  -1.2746   1.0862   1.0862   1.3498   1.3498   2.1392   2.1392
     2.2280   2.2280   3.5409   3.5409   3.7566   3.7566   4.8843   4.8843
     4.9005   4.9005   5.5985   5.5985   6.6541   6.6541   7.1391   7.1391
     7.2175   7.2175   7.6109   7.6109   7.7608   7.7608   8.0229   8.0229
     8.1085   8.1085   8.2694   8.2694   8.3523   8.3523   9.1557   9.1557
     9.2277   9.2277   9.3580   9.3580   9.3689   9.3689   9.7749   9.7749
     9.9672   9.9672  10.5887  10.5887  10.8884  10.8884  11.4797  11.4797
    11.5095  11.5095  11.8053  11.8053  12.1267  12.1267  12.4919  12.4919
    14.0993  14.0993  14.1211  14.1211  14.3907  14.3907  14.5411  14.5411
    14.6675  14.6675  15.1160  15.1160  15.3759  15.3759  15.4861  15.4861
    15.8060  15.8060  16.0285  16.0285  16.7739  16.7739  16.9476  16.9476
    17.1251  17.1251  17.1354  17.1355

          k = 0.2333 0.4041 0.0000 ( 13733 PWs)   bands (ev):

   -12.1321 -12.1321  -9.1212  -9.1212  -6.5751  -6.5751  -4.1985  -4.1985
    -1.4521  -1.4521   1.2370   1.2370   1.4993   1.4993   2.0909   2.0909
     2.2974   2.2974   3.7285   3.7285   3.9564   3.9564   5.0675   5.0675
     5.0980   5.0980   5.5244   5.5244   6.5795   6.5795   7.2356   7.2356
     7.3297   7.3297   7.5298   7.5298   7.6599   7.6599   7.8330   7.8330
     7.8519   7.8519   8.0997   8.0997   8.1992   8.1992   9.0051   9.0051
     9.0757   9.0757   9.1561   9.1561   9.2458   9.2458   9.6987   9.6987
    10.0207  10.0207  10.6729  10.6729  10.9702  10.9702  11.2737  11.2737
    11.2826  11.2826  11.6347  11.6347  11.9706  11.9706  12.8461  12.8461
    14.0326  14.0326  14.1710  14.1710  14.3457  14.3457  14.3775  14.3775
    14.5912  14.5912  14.9673  14.9673  15.2234  15.2234  15.5901  15.5901
    15.9749  15.9749  16.1668  16.1668  16.8381  16.8381  17.1008  17.1008
    17.1913  17.1913  17.2958  17.2958

          k = 0.2444 0.4234 0.0000 ( 13751 PWs)   bands (ev):

   -11.9714 -11.9714  -9.3288  -9.3288  -6.7095  -6.7095  -4.0464  -4.0464
    -1.6278  -1.6278   1.3972   1.3972   1.6214   1.6214   1.9928   1.9928
     2.4672   2.4672   3.9302   3.9302   4.1656   4.1656   5.2541   5.2541
     5.2991   5.2991   5.4112   5.4112   6.4320   6.4320   7.2400   7.2400
     7.2772   7.2772   7.4442   7.4442   7.5876   7.5876   7.5943   7.5943
     7.6792   7.6792   7.8802   7.8802   8.2770   8.2770   8.7824   8.7824
     8.8852   8.8852   9.0938   9.0938   9.1626   9.1626   9.7287   9.7287
    10.0855  10.0855  10.7786  10.7786  10.9757  10.9757  11.0507  11.0507
    11.1943  11.1943  11.4549  11.4549  11.8563  11.8563  13.2266  13.2266
    13.8110  13.8110  14.1122  14.1122  14.2235  14.2235  14.3534  14.3534
    14.6098  14.6098  14.8767  14.8767  15.0361  15.0361  15.7743  15.7743
    16.0861  16.0861  16.3414  16.3414  16.5672  16.5672  17.2531  17.2531
    17.2660  17.2660  17.4849  17.4849

          k = 0.2556 0.4426 0.0000 ( 13769 PWs)   bands (ev):

   -11.8074 -11.8074  -9.5285  -9.5285  -6.8349  -6.8349  -3.8915  -3.8915
    -1.8003  -1.8003   1.5662   1.5662   1.6429   1.6429   2.0105   2.0105
     2.6464   2.6464   4.1439   4.1439   4.3838   4.3838   5.2552   5.2552
     5.4375   5.4375   5.5304   5.5304   6.2516   6.2516   6.9283   6.9283
     7.1041   7.1041   7.2924   7.2924   7.4579   7.4579   7.4939   7.4939
     7.7787   7.7787   7.7879   7.7879   8.2767   8.2767   8.5673   8.5673
     8.6773   8.6773   8.9267   8.9267   9.3501   9.3501   9.8227   9.8227
    10.1579  10.1579  10.7998  10.7998  10.8223  10.8223  10.9117  10.9117
    11.2359  11.2359  11.3670  11.3670  11.7963  11.7963  13.5357  13.5357
    13.5769  13.5769  14.0165  14.0165  14.1016  14.1016  14.2570  14.2570
    14.6843  14.6843  14.7450  14.7450  15.0111  15.0111  15.9670  15.9670
    16.1469  16.1469  16.1968  16.1968  16.5307  16.5308  17.4305  17.4306
    17.4363  17.4363  17.6594  17.6595

          k = 0.2667 0.4619 0.0000 ( 13771 PWs)   bands (ev):

   -11.6412 -11.6412  -9.7199  -9.7199  -6.9501  -6.9501  -3.7350  -3.7350
    -1.9685  -1.9685   1.5666   1.5666   1.7434   1.7434   2.1430   2.1430
     2.8320   2.8320   4.3683   4.3683   4.6101   4.6101   5.1062   5.1062
     5.6014   5.6014   5.7553   5.7553   6.0307   6.0307   6.5948   6.5948
     6.9062   6.9062   7.1038   7.1038   7.2575   7.2575   7.3390   7.3390
     7.8584   7.8584   7.9974   7.9974   8.1805   8.1805   8.3629   8.3629
     8.4826   8.4826   8.7696   8.7696   9.6015   9.6015   9.9415   9.9415
    10.2633  10.2633  10.6049  10.6049  10.6322  10.6322  11.0258  11.0258
    11.0999  11.0999  11.5224  11.5224  11.7979  11.7979  13.3436  13.3436
    13.5611  13.5611  13.9111  13.9111  14.0913  14.0913  14.2457  14.2457
    14.5550  14.5550  14.7523  14.7523  15.0868  15.0868  15.8616  15.8616
    16.1625  16.1625  16.1908  16.1908  16.7152  16.7152  17.5702  17.5704
    17.6228  17.6229  17.6434  17.6434

          k = 0.2778 0.4811 0.0000 ( 13783 PWs)   bands (ev):

   -11.4741 -11.4741  -9.9032  -9.9032  -7.0532  -7.0532  -3.5782  -3.5782
    -2.1316  -2.1316   1.4702   1.4702   1.9278   1.9278   2.3141   2.3141
     3.0201   3.0201   4.6015   4.6015   4.8419   4.8419   4.9561   4.9561
     5.7029   5.7029   5.7236   5.7236   5.9895   5.9895   6.4054   6.4054
     6.7143   6.7143   6.9187   6.9187   7.0615   7.0615   7.1564   7.1564
     7.9650   7.9650   8.0291   8.0291   8.1770   8.1770   8.1789   8.1789
     8.3534   8.3534   8.6514   8.6514   9.7489   9.7489  10.0515  10.0515
    10.4214  10.4214  10.4229  10.4229  10.5100  10.5100  10.9796  10.9796
    11.1571  11.1571  11.7127  11.7127  11.8559  11.8559  13.1149  13.1149
    13.4190  13.4190  13.7554  13.7554  13.8887  13.8887  14.3749  14.3749
    14.6002  14.6002  14.7786  14.7786  15.0474  15.0474  15.6997  15.6997
    16.2521  16.2522  16.3555  16.3555  16.8683  16.8683  17.4727  17.4728
    17.5460  17.5461  17.8388  17.8507

          k = 0.2889 0.5004 0.0000 ( 13801 PWs)   bands (ev):

   -11.3078 -11.3078 -10.0780 -10.0780  -7.1425  -7.1425  -3.4226  -3.4226
    -2.2888  -2.2888   1.3801   1.3801   2.1183   2.1183   2.4983   2.4983
     3.2036   3.2036   4.7842   4.7842   4.8704   4.8704   5.0635   5.0635
     5.3445   5.3445   5.7088   5.7088   6.2266   6.2266   6.3979   6.3979
     6.5527   6.5527   6.7468   6.7468   6.8732   6.8732   6.9810   6.9810
     7.8745   7.8745   7.9293   7.9293   8.0704   8.0704   8.0846   8.0846
     8.5185   8.5185   8.6271   8.6271   9.7474   9.7474  10.0918  10.0918
    10.2634  10.2634  10.2802  10.2802  10.8436  10.8436  10.9213  10.9213
    11.3005  11.3005  11.9117  11.9117  11.9517  11.9517  12.8946  12.8946
    13.2546  13.2546  13.5987  13.5987  13.6535  13.6535  14.2230  14.2230
    14.7495  14.7495  14.8200  14.8200  14.9773  14.9773  15.7782  15.7782
    16.3497  16.3497  16.5367  16.5367  16.9535  16.9535  17.3033  17.3033
    17.4400  17.4400  17.7750  17.7750

          k = 0.3000 0.5196 0.0000 ( 13771 PWs)   bands (ev):

   -11.1440 -11.1440 -10.2443 -10.2443  -7.2161  -7.2161  -3.2700  -3.2700
    -2.4396  -2.4396   1.3042   1.3042   2.3128   2.3128   2.6877   2.6877
     3.3667   3.3667   4.6619   4.6619   4.9021   4.9021   5.1069   5.1069
     5.3184   5.3184   5.6707   5.6707   6.3146   6.3146   6.4185   6.4185
     6.5774   6.5774   6.6368   6.6368   6.6949   6.6949   6.8409   6.8409
     7.7142   7.7142   7.7689   7.7689   7.9057   7.9057   8.0213   8.0213
     8.7280   8.7280   8.7630   8.7630   9.6659   9.6659   9.9901   9.9901
    10.1002  10.1002  10.2216  10.2216  10.9570  10.9570  11.2249  11.2249
    11.4613  11.4613  12.0544  12.0544  12.1089  12.1089  12.6974  12.6974
    13.0955  13.0955  13.3866  13.3866  13.4493  13.4493  14.1097  14.1097
    14.5571  14.5571  14.6687  14.6687  15.3466  15.3466  15.9527  15.9527
    16.4799  16.4799  16.6851  16.6851  16.9384  16.9384  17.1508  17.1508
    17.3554  17.3555  17.6362  17.6364

          k = 0.3111 0.5389 0.0000 ( 13793 PWs)   bands (ev):

   -10.9850 -10.9850 -10.4020 -10.4020  -7.2717  -7.2717  -3.1224  -3.1224
    -2.5837  -2.5837   1.2466   1.2466   2.5075   2.5075   2.8771   2.8771
     3.4680   3.4680   4.5367   4.5367   4.5556   4.5556   5.3659   5.3659
     5.4160   5.4160   5.7443   5.7443   6.1554   6.1554   6.3595   6.3595
     6.5219   6.5219   6.5659   6.5659   6.8006   6.8006   6.8819   6.8819
     7.5559   7.5559   7.6033   7.6033   7.7458   7.7458   7.9213   7.9213
     8.8986   8.8986   9.0209   9.0209   9.5482   9.5482   9.8375   9.8375
     9.9468   9.9468  10.1648  10.1648  11.0797  11.0797  11.4921  11.4921
    11.7106  11.7106  12.1047  12.1047  12.2862  12.2862  12.5745  12.5745
    12.9555  12.9555  13.1013  13.1013  13.3143  13.3143  14.0392  14.0392
    14.3432  14.3432  14.5496  14.5496  15.6978  15.6978  16.1494  16.1494
    16.6169  16.6169  16.7622  16.7622  16.8198  16.8198  17.0369  17.0369
    17.3470  17.3471  17.5030  17.5030

          k = 0.3222 0.5581 0.0000 ( 13811 PWs)   bands (ev):

   -10.8333 -10.8333 -10.5511 -10.5511  -7.3069  -7.3069  -2.9819  -2.9819
    -2.7208  -2.7208   1.2103   1.2103   2.6910   2.6910   3.0601   3.0601
     3.4168   3.4168   4.3577   4.3577   4.4308   4.4308   5.3958   5.3958
     5.6262   5.6262   5.9551   5.9551   6.0105   6.0105   6.2286   6.2286
     6.3610   6.3610   6.4384   6.4384   7.0538   7.0538   7.0685   7.0685
     7.4043   7.4043   7.4463   7.4463   7.5986   7.5986   7.8237   7.8237
     9.0859   9.0859   9.2739   9.2739   9.4242   9.4242   9.6841   9.6841
     9.8050   9.8050  10.1030  10.1030  11.2531  11.2531  11.5644  11.5644
    11.9700  11.9700  12.1304  12.1304  12.4024  12.4024  12.5566  12.5566
    12.8503  12.8503  12.8567  12.8567  13.2088  13.2088  13.9975  13.9975
    14.2334  14.2334  14.4110  14.4110  16.0145  16.0145  16.3354  16.3354
    16.6392  16.6392  16.7019  16.7019  16.7556  16.7556  16.9776  16.9776
    17.3985  17.3985  17.4328  17.4328

          k = 0.3333 0.5774 0.0000 ( 13815 PWs)   bands (ev):

   -10.6944 -10.6944 -10.6886 -10.6886  -7.3192  -7.3192  -2.8513  -2.8513
    -2.8498  -2.8498   1.1978   1.1978   2.8016   2.8016   3.2167   3.2167
     3.2366   3.2366   4.3522   4.3522   4.3558   4.3558   5.3775   5.3775
     5.8450   5.8450   5.8451   5.8451   6.1475   6.1475   6.2098   6.2098
     6.2098   6.2098   6.3330   6.3330   7.2252   7.2252   7.2252   7.2252
     7.3184   7.3184   7.3185   7.3185   7.5016   7.5016   7.7741   7.7741
     9.2513   9.2513   9.2513   9.2513   9.5392   9.5392   9.5392   9.5392
     9.7070   9.7070  10.0726  10.0726  11.4501  11.4501  11.4509  11.4509
    11.9719  11.9719  12.4011  12.4011  12.4024  12.4024  12.4133  12.4133
    12.8059  12.8059  12.8077  12.8077  13.1665  13.1665  13.9731  13.9731
    14.2768  14.2768  14.2795  14.2795  16.1957  16.1957  16.4689  16.4689
    16.4747  16.4747  16.7130  16.7130  16.7148  16.7148  16.9809  16.9809
    17.3564  17.3564  17.5600  17.5600

          k = 0.3222 0.5774 0.0000 ( 13811 PWs)   bands (ev):

   -10.7584 -10.7584 -10.6251 -10.6251  -7.3160  -7.3160  -2.9126  -2.9126
    -2.7890  -2.7890   1.2010   1.2010   2.7492   2.7492   3.1906   3.1906
     3.2993   3.2993   4.3318   4.3318   4.3895   4.3895   5.3836   5.3836
     5.7742   5.7742   5.8793   5.8793   6.1363   6.1363   6.1889   6.1889
     6.2088   6.2088   6.4099   6.4099   7.1702   7.1702   7.2027   7.2027
     7.3228   7.3228   7.3247   7.3247   7.5576   7.5576   7.7929   7.7929
     9.1791   9.1791   9.3103   9.3103   9.4730   9.4730   9.5501   9.5501
     9.7691   9.7691  10.0831  10.0831  11.3335  11.3335  11.5527  11.5527
    11.9727  11.9727  12.2867  12.2867  12.3651  12.3651  12.5480  12.5480
    12.7804  12.7804  12.8315  12.8315  13.1751  13.1751  13.9830  13.9830
    14.2255  14.2255  14.3529  14.3529  16.1384  16.1384  16.4403  16.4403
    16.5078  16.5078  16.6940  16.6940  16.7607  16.7607  16.9741  16.9741
    17.3691  17.3691  17.5047  17.5047

          k = 0.3111 0.5774 0.0000 ( 13811 PWs)   bands (ev):

   -10.8231 -10.8231 -10.5622 -10.5622  -7.3062  -7.3062  -2.9728  -2.9728
    -2.7305  -2.7305   1.2109   1.2109   2.6075   2.6075   3.2283   3.2283
     3.3597   3.3597   4.3240   4.3240   4.4323   4.4323   5.4031   5.4031
     5.7054   5.7054   5.8535   5.8535   6.0671   6.0671   6.1556   6.1556
     6.2919   6.2919   6.5453   6.5453   7.1040   7.1040   7.1412   7.1412
     7.2781   7.2781   7.3383   7.3383   7.6814   7.6814   7.8517   7.8517
     9.1041   9.1041   9.3373   9.3373   9.4214   9.4214   9.5014   9.5014
     9.8959   9.8959  10.1173  10.1173  11.1943  11.1943  11.6548  11.6548
    11.9657  11.9657  12.1708  12.1708  12.3145  12.3145  12.6796  12.6796
    12.7454  12.7454  12.8520  12.8520  13.1930  13.1930  14.0148  14.0148
    14.1909  14.1909  14.4552  14.4552  16.0119  16.0119  16.4050  16.4050
    16.5226  16.5226  16.6751  16.6751  16.8418  16.8418  16.9659  16.9659
    17.4071  17.4071  17.4620  17.4620

          k = 0.3000 0.5774 0.0000 ( 13799 PWs)   bands (ev):

   -10.8855 -10.8855 -10.5030 -10.5030  -7.2896  -7.2896  -3.0311  -3.0311
    -2.6752  -2.6752   1.2276   1.2276   2.4239   2.4239   3.2962   3.2962
     3.4066   3.4066   4.3331   4.3331   4.4763   4.4763   5.4364   5.4364
     5.6392   5.6392   5.8047   5.8047   5.9999   5.9999   6.1003   6.1003
     6.4211   6.4211   6.6884   6.6884   7.0382   7.0382   7.0768   7.0768
     7.2228   7.2228   7.3308   7.3308   7.8233   7.8233   7.9433   7.9433
     9.0275   9.0275   9.3085   9.3085   9.4072   9.4072   9.4430   9.4430
    10.0359  10.0359  10.1760  10.1760  11.0421  11.0421  11.7547  11.7547
    11.9270  11.9270  12.0844  12.0844  12.2569  12.2569  12.7041  12.7041
    12.7793  12.7793  12.8854  12.8854  13.2071  13.2071  14.0675  14.0675
    14.1811  14.1811  14.5795  14.5795  15.8575  15.8575  16.3545  16.3545
    16.5245  16.5245  16.6535  16.6535  16.8552  16.8552  17.0373  17.0373
    17.4202  17.4202  17.4659  17.4659

          k = 0.2889 0.5774 0.0000 ( 13783 PWs)   bands (ev):

   -10.9458 -10.9458 -10.4477 -10.4477  -7.2661  -7.2661  -3.0874  -3.0874
    -2.6233  -2.6233   1.2512   1.2512   2.2236   2.2236   3.3717   3.3717
     3.4384   3.4384   4.3604   4.3604   4.5195   4.5195   5.4806   5.4806
     5.5768   5.5768   5.7492   5.7492   5.9352   5.9352   6.0494   6.0494
     6.5578   6.5578   6.8316   6.8316   6.9753   6.9753   7.0144   7.0144
     7.1679   7.1679   7.3126   7.3126   7.9721   7.9721   8.0549   8.0549
     8.9495   8.9495   9.2529   9.2529   9.3834   9.3834   9.4053   9.4053
    10.1796  10.1796  10.2558  10.2558  10.8830  10.8830  11.8374  11.8374
    11.8516  11.8516  12.0445  12.0445  12.1954  12.1954  12.6598  12.6598
    12.7958  12.7958  12.9855  12.9855  13.2095  13.2095  14.1378  14.1378
    14.2008  14.2008  14.7191  14.7191  15.6882  15.6882  16.2962  16.2962
    16.5217  16.5217  16.6292  16.6292  16.8078  16.8078  17.1705  17.1705
    17.3676  17.3677  17.5364  17.5364

          k = 0.2778 0.5774 0.0000 ( 13783 PWs)   bands (ev):

   -11.0038 -11.0038 -10.3965 -10.3965  -7.2355  -7.2355  -3.1418  -3.1418
    -2.5749  -2.5749   1.2818   1.2818   2.0160   2.0160   3.4445   3.4445
     3.4566   3.4566   4.4058   4.4058   4.5623   4.5623   5.5018   5.5018
     5.5480   5.5480   5.6921   5.6921   5.8729   5.8729   6.0070   6.0070
     6.6892   6.6892   6.9198   6.9198   6.9393   6.9393   6.9829   6.9829
     7.1190   7.1190   7.2977   7.2977   8.1249   8.1249   8.1771   8.1771
     8.8701   8.8701   9.1941   9.1941   9.3243   9.3243   9.3977   9.3977
    10.3221  10.3221  10.3513  10.3513  10.7232  10.7232  11.7294  11.7294
    11.9364  11.9364  12.0249  12.0249  12.1318  12.1318  12.6150  12.6150
    12.7732  12.7732  13.1130  13.1130  13.2003  13.2003  14.2215  14.2215
    14.2498  14.2498  14.8664  14.8664  15.5089  15.5089  16.2350  16.2350
    16.5140  16.5140  16.6105  16.6105  16.7468  16.7468  17.2880  17.2880
    17.3261  17.3261  17.6061  17.6062

          k = 0.2667 0.5774 0.0000 ( 13789 PWs)   bands (ev):

   -11.0596 -11.0596 -10.3495 -10.3495  -7.1978  -7.1978  -3.1942  -3.1942
    -2.5302  -2.5302   1.3194   1.3194   1.8054   1.8054   3.4578   3.4578
     3.5153   3.5153   4.4672   4.4672   4.6071   4.6071   5.4491   5.4491
     5.5952   5.5952   5.6354   5.6354   5.8131   5.8131   5.9797   5.9797
     6.7730   6.7730   6.8893   6.8893   6.8991   6.8991   7.0825   7.0825
     7.0903   7.0903   7.3130   7.3130   8.2804   8.2804   8.3042   8.3042
     8.7891   8.7891   9.1361   9.1361   9.2665   9.2665   9.3863   9.3863
    10.4400  10.4400  10.4568  10.4568  10.5874  10.5874  11.6164  11.6164
    12.0070  12.0070  12.0112  12.0112  12.0672  12.0672  12.5708  12.5708
    12.7380  12.7380  13.1866  13.1866  13.2461  13.2461  14.3148  14.3148
    14.3240  14.3240  15.0133  15.0133  15.3222  15.3222  16.1730  16.1730
    16.4908  16.4908  16.6151  16.6151  16.6804  16.6804  17.2075  17.2075
    17.4678  17.4678  17.5612  17.5613

          k = 0.2556 0.5774 0.0000 ( 13793 PWs)   bands (ev):

   -11.1131 -11.1131 -10.3068 -10.3068  -7.1531  -7.1531  -3.2447  -3.2447
    -2.4891  -2.4891   1.3639   1.3639   1.5939   1.5939   3.4510   3.4510
     3.5752   3.5752   4.5417   4.5417   4.6566   4.6566   5.3928   5.3928
     5.5799   5.5799   5.6343   5.6343   5.7560   5.7560   5.9786   5.9786
     6.7525   6.7525   6.8329   6.8329   6.9193   6.9193   7.1240   7.1240
     7.1315   7.1315   7.3991   7.3991   8.4316   8.4316   8.4377   8.4377
     8.7066   8.7066   9.0799   9.0799   9.2102   9.2102   9.3758   9.3758
    10.3661  10.3661  10.5674  10.5674  10.6430  10.6430  11.5071  11.5071
    11.9897  11.9897  12.0017  12.0017  12.0671  12.0671  12.5278  12.5278
    12.6968  12.6968  13.1794  13.1794  13.3817  13.3817  14.4148  14.4148
    14.4169  14.4169  15.1303  15.1303  15.1521  15.1521  16.1114  16.1114
    16.4478  16.4478  16.6103  16.6103  16.6516  16.6516  17.1044  17.1044
    17.3332  17.3332  17.6111  17.6111

          k = 0.2444 0.5774 0.0000 ( 13809 PWs)   bands (ev):

   -11.1644 -11.1644 -10.2683 -10.2683  -7.1015  -7.1015  -3.2933  -3.2933
    -2.4516  -2.4516   1.3827   1.3827   1.4154   1.4154   3.4365   3.4365
     3.6250   3.6250   4.6261   4.6261   4.7134   4.7134   5.3384   5.3384
     5.5261   5.5261   5.6478   5.6478   5.7014   5.7014   6.0132   6.0132
     6.7005   6.7005   6.7784   6.7784   6.8967   6.8967   7.1214   7.1214
     7.2534   7.2534   7.5361   7.5361   8.5548   8.5548   8.5849   8.5849
     8.6329   8.6329   9.0257   9.0257   9.1561   9.1561   9.3716   9.3716
    10.2153  10.2153  10.6782  10.6782  10.7712  10.7712  11.4080  11.4080
    11.9368  11.9368  11.9700  11.9700  12.1023  12.1023  12.4854  12.4854
    12.6529  12.6529  13.1894  13.1894  13.5191  13.5191  14.5192  14.5192
    14.5212  14.5212  14.9370  14.9370  15.2755  15.2755  16.0508  16.0508
    16.3875  16.3875  16.5358  16.5358  16.7157  16.7157  16.9852  16.9852
    17.1073  17.1073  17.4406  17.4407

          k = 0.2333 0.5774 0.0000 ( 13803 PWs)   bands (ev):

   -11.2135 -11.2135 -10.2340 -10.2340  -7.0432  -7.0432  -3.3399  -3.3399
    -2.4177  -2.4177   1.1731   1.1731   1.4731   1.4731   3.4171   3.4171
     3.6637   3.6637   4.7173   4.7173   4.7791   4.7791   5.2863   5.2863
     5.4743   5.4743   5.6372   5.6372   5.6497   5.6497   6.0783   6.0783
     6.6442   6.6442   6.7261   6.7261   6.8565   6.8565   7.1095   7.1095
     7.4032   7.4032   7.6908   7.6908   8.5279   8.5279   8.6679   8.6679
     8.7601   8.7601   8.9739   8.9739   9.1053   9.1053   9.3800   9.3800
    10.0647  10.0647  10.7842  10.7842  10.8810  10.8810  11.3356  11.3356
    11.8747  11.8747  11.9482  11.9482  12.1162  12.1162  12.4434  12.4434
    12.6087  12.6087  13.2233  13.2233  13.6577  13.6577  14.6099  14.6099
    14.6257  14.6257  14.7653  14.7653  15.3799  15.3799  15.9916  15.9916
    16.3037  16.3037  16.4539  16.4539  16.7834  16.7834  16.8472  16.8472
    16.9270  16.9270  17.2286  17.2287

          k = 0.2222 0.5774 0.0000 ( 13795 PWs)   bands (ev):

   -11.2603 -11.2603 -10.2037 -10.2037  -6.9786  -6.9786  -3.3845  -3.3845
    -2.3873  -2.3873   0.9654   0.9654   1.5373   1.5373   3.3948   3.3948
     3.6916   3.6916   4.8126   4.8126   4.8537   4.8537   5.2366   5.2366
     5.4250   5.4250   5.6009   5.6009   5.6135   5.6135   6.1597   6.1597
     6.5874   6.5874   6.6762   6.6762   6.8132   6.8132   7.1010   7.1010
     7.5626   7.5626   7.8526   7.8526   8.4367   8.4367   8.7634   8.7634
     8.9089   8.9089   8.9247   8.9247   9.0661   9.0661   9.4093   9.4093
     9.9210   9.9210  10.8781  10.8781  10.9285  10.9285  11.3284  11.3284
    11.8185  11.8185  11.9255  11.9255  12.1122  12.1122  12.4025  12.4025
    12.5660  12.5660  13.2826  13.2826  13.7968  13.7968  14.5004  14.5004
    14.7323  14.7323  14.7957  14.7957  15.4644  15.4644  15.9340  15.9340
    16.1818  16.1818  16.3580  16.3580  16.6895  16.6895  16.6988  16.6988
    16.9644  16.9644  17.0489  17.0489

          k = 0.2111 0.5774 0.0000 ( 13809 PWs)   bands (ev):

   -11.3048 -11.3048 -10.1772 -10.1772  -6.9080  -6.9080  -3.4271  -3.4271
    -2.3602  -2.3602   0.7602   0.7602   1.6073   1.6073   3.3712   3.3712
     3.7096   3.7096   4.9091   4.9091   4.9361   4.9361   5.1896   5.1896
     5.3788   5.3788   5.5554   5.5554   5.5852   5.5852   6.2452   6.2452
     6.5309   6.5309   6.6288   6.6288   6.7703   6.7703   7.1022   7.1022
     7.7268   7.7268   8.0180   8.0180   8.3414   8.3414   8.8328   8.8328
     8.8799   8.8799   8.9673   8.9673   9.1184   9.1184   9.4665   9.4665
     9.7880   9.7880  10.8922  10.8922  10.9504  10.9504  11.4060  11.4060
    11.7743  11.7743  11.9030  11.9030  12.0960  12.0960  12.3654  12.3654
    12.5266  12.5266  13.3640  13.3640  13.9357  13.9357  14.3024  14.3024
    14.8371  14.8371  14.9160  14.9160  15.5313  15.5313  15.8777  15.8777
    16.0128  16.0128  16.2349  16.2349  16.5261  16.5261  16.5888  16.5888
    16.9028  16.9028  17.0953  17.0953

          k = 0.2000 0.5774 0.0000 ( 13799 PWs)   bands (ev):

   -11.3471 -11.3471 -10.1543 -10.1543  -6.8319  -6.8319  -3.4678  -3.4678
    -2.3362  -2.3362   0.5581   0.5581   1.6829   1.6829   3.3475   3.3475
     3.7192   3.7192   5.0031   5.0031   5.0228   5.0228   5.1463   5.1463
     5.3373   5.3373   5.5142   5.5142   5.5579   5.5579   6.3258   6.3258
     6.4748   6.4748   6.5841   6.5841   6.7290   6.7290   7.1183   7.1183
     7.8939   7.8939   8.1850   8.1850   8.2427   8.2427   8.8287   8.8287
     8.8860   8.8860   8.9316   8.9316   9.2601   9.2601   9.5533   9.5533
     9.6721   9.6721  10.8121  10.8121  10.9898  10.9898  11.5257  11.5257
    11.7487  11.7487  11.8826  11.8826  12.0736  12.0736  12.3372  12.3372
    12.4928  12.4928  13.4627  13.4627  14.0731  14.0731  14.0967  14.0967
    14.9380  14.9380  15.0432  15.0432  15.5828  15.5828  15.8097  15.8097
    15.8212  15.8212  16.0727  16.0727  16.3797  16.3797  16.5144  16.5144
    16.7825  16.7825  17.2197  17.2198

          k = 0.1889 0.5774 0.0000 ( 13797 PWs)   bands (ev):

   -11.3871 -11.3871 -10.1346 -10.1346  -6.7509  -6.7509  -3.5066  -3.5066
    -2.3152  -2.3152   0.3595   0.3595   1.7634   1.7634   3.3246   3.3246
     3.7222   3.7222   5.0824   5.0824   5.0905   5.0905   5.1288   5.1288
     5.3053   5.3053   5.4795   5.4795   5.5366   5.5366   6.3944   6.3944
     6.4192   6.4192   6.5423   6.5423   6.6899   6.6899   7.1538   7.1538
     8.0599   8.0599   8.1442   8.1442   8.3514   8.3514   8.7876   8.7876
     8.8859   8.8859   8.9138   8.9138   9.3774   9.3774   9.6025   9.6025
     9.6639   9.6639  10.7184  10.7184  10.9889  10.9889  11.6496  11.6496
    11.7432  11.7432  11.8704  11.8704  12.0495  12.0495  12.3249  12.3249
    12.4680  12.4680  13.5743  13.5743  13.8892  13.8892  14.2074  14.2074
    15.0331  15.0331  15.1668  15.1668  15.5585  15.5585  15.6546  15.6546
    15.7517  15.7517  15.8926  15.8926  16.2524  16.2524  16.4606  16.4606
    16.6800  16.6801  17.1010  17.1010

          k = 0.1778 0.5774 0.0000 ( 13793 PWs)   bands (ev):

   -11.4249 -11.4249 -10.1180 -10.1180  -6.6654  -6.6654  -3.5434  -3.5434
    -2.2969  -2.2969   0.1649   0.1649   1.8482   1.8482   3.3035   3.3035
     3.7199   3.7199   5.0567   5.0567   5.1386   5.1386   5.1982   5.1982
     5.2959   5.2959   5.4582   5.4582   5.5292   5.5292   6.3640   6.3640
     6.4447   6.4447   6.5057   6.5057   6.6534   6.6534   7.2112   7.2112
     8.0333   8.0333   8.2375   8.2375   8.5121   8.5121   8.7477   8.7477
     8.8391   8.8391   8.9373   8.9373   9.3715   9.3715   9.6680   9.6680
     9.7893   9.7893  10.6235  10.6235  10.9511  10.9511  11.7379  11.7379
    11.7485  11.7485  11.8900  11.8900  12.0257  12.0257  12.3382  12.3382
    12.4586  12.4586  13.6803  13.6803  13.6966  13.6966  14.3358  14.3358
    15.1188  15.1188  15.2715  15.2715  15.3433  15.3433  15.6086  15.6086
    15.6797  15.6797  15.7839  15.7839  16.1310  16.1310  16.4067  16.4067
    16.5911  16.5911  16.9052  16.9054

          k = 0.1667 0.5774 0.0000 ( 13777 PWs)   bands (ev):

   -11.4604 -11.4604 -10.1040 -10.1040  -6.5762  -6.5762  -3.5784  -3.5784
    -2.2811  -2.2811  -0.0252  -0.0252   1.9365   1.9365   3.2849   3.2849
     3.7139   3.7139   5.0201   5.0201   5.1390   5.1390   5.2559   5.2559
     5.3064   5.3064   5.4691   5.4691   5.5495   5.5495   6.3095   6.3095
     6.4524   6.4524   6.4984   6.4984   6.6200   6.6200   7.2896   7.2896
     7.9295   7.9295   8.4071   8.4071   8.6545   8.6545   8.7101   8.7101
     8.7927   8.7927   8.9746   8.9746   9.2989   9.2989   9.8073   9.8073
     9.9200   9.9200  10.5357  10.5357  10.8895  10.8895  11.7503  11.7503
    11.7571  11.7571  11.9612  11.9612  12.0007  12.0007  12.3851  12.3851
    12.4762  12.4762  13.4757  13.4757  13.8228  13.8228  14.4537  14.4537
    15.0840  15.0840  15.2310  15.2310  15.2784  15.2784  15.4708  15.4708
    15.7106  15.7106  15.7538  15.7538  16.0075  16.0075  16.3183  16.3183
    16.5131  16.5131  16.7629  16.7629

          k = 0.1556 0.5774 0.0000 ( 13773 PWs)   bands (ev):

   -11.4936 -11.4936 -10.0924 -10.0924  -6.4841  -6.4841  -3.6114  -3.6114
    -2.2676  -2.2676  -0.2103  -0.2103   2.0272   2.0272   3.2698   3.2698
     3.7052   3.7052   4.9852   4.9852   5.1123   5.1123   5.2812   5.2812
     5.3003   5.3003   5.5229   5.5229   5.6072   5.6072   6.2561   6.2561
     6.4224   6.4224   6.5187   6.5187   6.5899   6.5899   7.3851   7.3851
     7.8262   7.8262   8.5732   8.5732   8.6746   8.6746   8.7483   8.7483
     8.7536   8.7536   9.0556   9.0556   9.2249   9.2249   9.9447   9.9447
    10.0445  10.0445  10.4686  10.4686  10.8218  10.8218  11.7429  11.7429
    11.7459  11.7459  11.9716  11.9716  12.0286  12.0286  12.4655  12.4655
    12.5353  12.5353  13.2735  13.2735  13.9550  13.9550  14.5480  14.5480
    14.8704  14.8704  15.0918  15.0918  15.3071  15.3071  15.4554  15.4554
    15.7320  15.7320  15.7770  15.7770  15.8842  15.8842  16.1688  16.1688
    16.4439  16.4439  16.7088  16.7088

          k = 0.1444 0.5774 0.0000 ( 13779 PWs)   bands (ev):

   -11.5245 -11.5245 -10.0830 -10.0830  -6.3896  -6.3896  -3.6426  -3.6426
    -2.2562  -2.2562  -0.3897  -0.3897   2.1192   2.1192   3.2590   3.2590
     3.6947   3.6947   4.9524   4.9524   5.0773   5.0773   5.2794   5.2794
     5.2811   5.2811   5.5957   5.5957   5.6929   5.6929   6.2052   6.2052
     6.3906   6.3906   6.5357   6.5357   6.5637   6.5637   7.4918   7.4918
     7.7263   7.7263   8.6417   8.6417   8.6796   8.6796   8.7554   8.7554
     8.8021   8.8021   9.1645   9.1645   9.1903   9.1903  10.0395  10.0395
    10.1438  10.1438  10.4542  10.4542  10.7726  10.7726  11.7266  11.7266
    11.7289  11.7289  11.9367  11.9367  12.0636  12.0636  12.5710  12.5710
    12.6403  12.6403  13.0785  13.0785  14.0899  14.0899  14.5298  14.5298
    14.7455  14.7455  14.8597  14.8597  15.3961  15.3961  15.4101  15.4101
    15.7286  15.7286  15.7620  15.7620  15.8553  15.8554  15.9909  15.9909
    16.3808  16.3809  16.7232  16.7234

          k = 0.1333 0.5774 0.0000 ( 13783 PWs)   bands (ev):

   -11.5532 -11.5532 -10.0753 -10.0753  -6.2938  -6.2938  -3.6719  -3.6719
    -2.2465  -2.2465  -0.5629  -0.5629   2.2110   2.2110   3.2539   3.2539
     3.6832   3.6832   4.9220   4.9220   5.0393   5.0393   5.2546   5.2546
     5.2684   5.2684   5.6664   5.6664   5.7910   5.7910   6.1598   6.1598
     6.3605   6.3605   6.5420   6.5420   6.5509   6.5509   7.6035   7.6035
     7.6325   7.6325   8.6111   8.6111   8.6425   8.6425   8.8272   8.8272
     8.8754   8.8754   9.1395   9.1395   9.3547   9.3547  10.0555  10.0555
    10.1879  10.1879  10.5288  10.5288  10.7759  10.7759  11.7073  11.7073
    11.7091  11.7091  11.8947  11.8947  12.0727  12.0727  12.6817  12.6817
    12.7796  12.7796  12.9052  12.9052  14.2258  14.2258  14.3318  14.3318
    14.6211  14.6211  14.7823  14.7823  15.3121  15.3121  15.4942  15.4942
    15.6409  15.6409  15.6698  15.6698  15.8716  15.8716  15.9426  15.9426
    16.3212  16.3213  16.7768  16.7773

          k = 0.1222 0.5774 0.0000 ( 13783 PWs)   bands (ev):

   -11.5795 -11.5795 -10.0692 -10.0692  -6.1976  -6.1976  -3.6994  -3.6994
    -2.2385  -2.2385  -0.7291  -0.7291   2.3007   2.3007   3.2558   3.2558
     3.6712   3.6712   4.8939   4.8939   4.9997   4.9997   5.2293   5.2293
     5.2512   5.2512   5.7212   5.7212   5.8907   5.8907   6.1257   6.1257
     6.3326   6.3326   6.5256   6.5256   6.5691   6.5691   7.5476   7.5476
     7.7144   7.7144   8.5829   8.5829   8.5941   8.5941   8.8491   8.8491
     8.9221   8.9221   9.1997   9.1997   9.5307   9.5307  10.0206  10.0206
    10.1633  10.1633  10.6678  10.6678  10.8489  10.8489  11.6866  11.6866
    11.6894  11.6894  11.8432  11.8432  12.0680  12.0680  12.6630  12.6630
    12.8863  12.8863  12.9393  12.9393  14.1021  14.1021  14.3426  14.3426
    14.3996  14.3996  14.8328  14.8328  15.1722  15.1722  15.4504  15.4504
    15.6015  15.6015  15.6027  15.6027  15.8435  15.8435  16.0255  16.0255
    16.2621  16.2621  16.8500  16.8501

          k = 0.1111 0.5774 0.0000 ( 13773 PWs)   bands (ev):

   -11.6036 -11.6036 -10.0645 -10.0645  -6.1019  -6.1019  -3.7250  -3.7250
    -2.2318  -2.2318  -0.8873  -0.8873   2.3859   2.3859   3.2666   3.2666
     3.6592   3.6592   4.8683   4.8683   4.9584   4.9584   5.2051   5.2051
     5.2327   5.2327   5.7476   5.7476   5.9846   5.9846   6.1111   6.1111
     6.3070   6.3070   6.5155   6.5155   6.5953   6.5953   7.4744   7.4744
     7.8179   7.8179   8.5423   8.5423   8.5575   8.5575   8.8782   8.8782
     8.9027   8.9027   9.3207   9.3207   9.7070   9.7070   9.9810   9.9810
    10.0974  10.0974  10.8331  10.8331  10.9703  10.9703  11.6652  11.6652
    11.6717  11.6717  11.7782  11.7782  12.0576  12.0576  12.5192  12.5192
    13.0191  13.0191  13.1106  13.1106  13.8697  13.8697  14.1353  14.1353
    14.4993  14.4993  14.8675  14.8675  15.0075  15.0075  15.2355  15.2355
    15.5511  15.5511  15.7127  15.7127  15.8455  15.8455  16.0882  16.0882
    16.2028  16.2029  16.9183  16.9220

          k = 0.1000 0.5774 0.0000 ( 13779 PWs)   bands (ev):

   -11.6254 -11.6254 -10.0608 -10.0608  -6.0080  -6.0080  -3.7489  -3.7489
    -2.2264  -2.2264  -1.0367  -1.0367   2.4640   2.4640   3.2883   3.2883
     3.6476   3.6476   4.8451   4.8451   4.9150   4.9150   5.1826   5.1826
     5.2144   5.2144   5.7402   5.7402   6.0663   6.0663   6.1184   6.1184
     6.2839   6.2839   6.5124   6.5124   6.6351   6.6351   7.4158   7.4158
     7.9077   7.9077   8.4880   8.4880   8.5344   8.5344   8.8681   8.8681
     8.9216   8.9216   9.4329   9.4329   9.8467   9.8467   9.9704   9.9704
    10.0513  10.0513  11.0082  11.0082  11.1128  11.1128  11.6449  11.6449
    11.6559  11.6559  11.6956  11.6956  12.0458  12.0458  12.3869  12.3869
    13.1719  13.1719  13.2867  13.2867  13.6414  13.6414  13.8970  13.8970
    14.6144  14.6144  14.8414  14.8414  14.8633  14.8633  15.0410  15.0410
    15.5110  15.5110  15.7827  15.7827  15.8977  15.8977  16.0974  16.0974
    16.1701  16.1701  16.9174  16.9176

          k = 0.0889 0.5774 0.0000 ( 13779 PWs)   bands (ev):

   -11.6449 -11.6449 -10.0580 -10.0580  -5.9172  -5.9172  -3.7709  -3.7709
    -2.2220  -2.2220  -1.1761  -1.1761   2.5325   2.5325   3.3226   3.3226
     3.6366   3.6366   4.8243   4.8243   4.8687   4.8687   5.1620   5.1620
     5.1972   5.1972   5.7067   5.7067   6.1305   6.1305   6.1386   6.1386
     6.2632   6.2632   6.5164   6.5164   6.6925   6.6925   7.3747   7.3747
     7.9778   7.9778   8.4302   8.4302   8.5138   8.5138   8.8331   8.8331
     8.9845   8.9845   9.4951   9.4951   9.8307   9.8307  10.0208  10.0208
    10.1576  10.1576  11.1854  11.1854  11.2529  11.2529  11.5987  11.5987
    11.6274  11.6274  11.6430  11.6430  12.0358  12.0358  12.2849  12.2849
    13.3304  13.3304  13.3772  13.3772  13.5070  13.5070  13.6603  13.6603
    14.5838  14.5838  14.7233  14.7233  14.8083  14.8083  14.9714  14.9714
    15.4768  15.4768  15.7914  15.7914  16.0131  16.0131  16.0306  16.0306
    16.1887  16.1887  16.8657  16.8666

          k = 0.0778 0.5774 0.0000 ( 13761 PWs)   bands (ev):

   -11.6621 -11.6621 -10.0560 -10.0560  -5.8308  -5.8308  -3.7911  -3.7911
    -2.2185  -2.2185  -1.3042  -1.3042   2.5895   2.5895   3.3705   3.3705
     3.6265   3.6265   4.8059   4.8059   4.8187   4.8187   5.1437   5.1437
     5.1816   5.1816   5.6597   5.6597   6.1590   6.1590   6.1769   6.1769
     6.2451   6.2451   6.5260   6.5260   6.7679   6.7679   7.3532   7.3532
     8.0242   8.0242   8.3688   8.3688   8.4959   8.4959   8.8013   8.8013
     9.0694   9.0694   9.5012   9.5012   9.7431   9.7431  10.1372  10.1372
    10.3403  10.3403  11.3207  11.3207  11.3568  11.3568  11.5460  11.5460
    11.6163  11.6163  11.6355  11.6355  12.0312  12.0312  12.2179  12.2179
    13.1728  13.1728  13.4163  13.4163  13.5000  13.5000  13.6759  13.6759
    14.4052  14.4052  14.5083  14.5083  14.9115  14.9115  14.9706  14.9706
    15.4458  15.4458  15.7845  15.7845  15.9447  15.9447  16.1354  16.1354
    16.2106  16.2106  16.7170  16.7172

          k = 0.0667 0.5774 0.0000 ( 13737 PWs)   bands (ev):

   -11.6770 -11.6770 -10.0545 -10.0545  -5.7506  -5.7506  -3.8093  -3.8093
    -2.2157  -2.2157  -1.4196  -1.4196   2.6343   2.6343   3.4312   3.4312
     3.6174   3.6174   4.7642   4.7642   4.7902   4.7902   5.1275   5.1275
     5.1677   5.1677   5.6083   5.6083   6.1749   6.1749   6.2064   6.2064
     6.2301   6.2301   6.5381   6.5381   6.8576   6.8576   7.3523   7.3523
     8.0464   8.0464   8.3038   8.3038   8.4805   8.4805   8.7737   8.7737
     9.1746   9.1746   9.4768   9.4768   9.6525   9.6525  10.2942  10.2942
    10.5367  10.5367  11.2223  11.2223  11.5006  11.5006  11.5767  11.5767
    11.6464  11.6464  11.6621  11.6621  12.0389  12.0389  12.1884  12.1884
    12.9563  12.9563  13.1885  13.1885  13.6533  13.6533  13.8662  13.8662
    14.2128  14.2128  14.2841  14.2841  14.9759  14.9759  15.0174  15.0174
    15.4152  15.4152  15.7712  15.7712  15.8536  15.8536  16.2221  16.2221
    16.2342  16.2342  16.5846  16.5847

          k = 0.0556 0.5774 0.0000 ( 13741 PWs)   bands (ev):

   -11.6897 -11.6897 -10.0535 -10.0535  -5.6782  -5.6782  -3.8254  -3.8254
    -2.2135  -2.2135  -1.5210  -1.5210   2.6678   2.6678   3.5021   3.5021
     3.6096   3.6096   4.7054   4.7054   4.7767   4.7767   5.1137   5.1137
     5.1558   5.1558   5.5586   5.5586   6.1850   6.1850   6.2131   6.2131
     6.2287   6.2287   6.5493   6.5493   6.9554   6.9554   7.3712   7.3712
     8.0466   8.0466   8.2357   8.2357   8.4677   8.4677   8.7505   8.7505
     9.2920   9.2920   9.4430   9.4430   9.5761   9.5761  10.4709  10.4709
    10.7381  10.7381  11.0635  11.0635  11.5616  11.5616  11.5715  11.5715
    11.7114  11.7114  11.7684  11.7684  12.0739  12.0739  12.2056  12.2056
    12.7494  12.7494  12.9584  12.9584  13.7874  13.7874  14.0403  14.0403
    14.0428  14.0428  14.0770  14.0770  14.9806  14.9807  15.1067  15.1067
    15.3813  15.3813  15.7494  15.7494  15.7671  15.7671  16.1851  16.1851
    16.2650  16.2650  16.5731  16.5732

          k = 0.0444 0.5774 0.0000 ( 13737 PWs)   bands (ev):

   -11.7000 -11.7000 -10.0528 -10.0528  -5.6154  -5.6154  -3.8391  -3.8391
    -2.2119  -2.2119  -1.6067  -1.6067   2.6917   2.6917   3.5786   3.5786
     3.6031   3.6031   4.6433   4.6433   4.7657   4.7657   5.1023   5.1023
     5.1460   5.1460   5.5145   5.5145   6.1906   6.1906   6.2035   6.2035
     6.2386   6.2386   6.5577   6.5577   7.0548   7.0548   7.4066   7.4066
     8.0289   8.0289   8.1660   8.1660   8.4573   8.4573   8.7318   8.7318
     9.3841   9.3841   9.4098   9.4098   9.5523   9.5523  10.6572  10.6572
    10.8799  10.8799  10.9513  10.9513  11.5624  11.5624  11.5684  11.5684
    11.7730  11.7730  11.8432  11.8432  12.1515  12.1515  12.2837  12.2837
    12.5674  12.5674  12.7319  12.7319  13.7442  13.7442  13.8341  13.8341
    14.0419  14.0419  14.2585  14.2585  14.9847  14.9847  15.1644  15.1644
    15.3430  15.3430  15.6986  15.6986  15.7083  15.7083  16.0561  16.0561
    16.3079  16.3079  16.6645  16.6646

          k = 0.0333 0.5774 0.0000 ( 13725 PWs)   bands (ev):

   -11.7080 -11.7080 -10.0523 -10.0523  -5.5642  -5.5642  -3.8503  -3.8503
    -2.2107  -2.2107  -1.6752  -1.6752   2.7080   2.7080   3.5977   3.5977
     3.6553   3.6553   4.5809   4.5809   4.7571   4.7571   5.0934   5.0934
     5.1382   5.1382   5.4786   5.4786   6.1932   6.1932   6.1952   6.1952
     6.2450   6.2450   6.5628   6.5628   7.1490   7.1490   7.4529   7.4529
     7.9991   7.9991   8.0972   8.0972   8.4492   8.4492   8.7173   8.7173
     9.3790   9.3790   9.3818   9.3818   9.6520   9.6520  10.7038  10.7038
    10.8476  10.8476  11.1528  11.1528  11.5547  11.5547  11.5653  11.5653
    11.7806  11.7806  11.8763  11.8763  12.2101  12.2101  12.4090  12.4090
    12.4794  12.4794  12.5186  12.5186  13.5612  13.5612  13.6137  13.6137
    14.1779  14.1779  14.4542  14.4542  14.9891  14.9891  15.1613  15.1613
    15.3188  15.3188  15.6221  15.6221  15.6589  15.6589  15.9433  15.9433
    16.3662  16.3662  16.7725  16.7726

          k = 0.0222 0.5774 0.0000 ( 13717 PWs)   bands (ev):

   -11.7138 -11.7138 -10.0520 -10.0520  -5.5261  -5.5261  -3.8586  -3.8586
    -2.2099  -2.2099  -1.7253  -1.7253   2.7183   2.7183   3.5940   3.5940
     3.7233   3.7233   4.5242   4.5242   4.7510   4.7510   5.0870   5.0870
     5.1327   5.1327   5.4523   5.4523   6.1891   6.1891   6.1944   6.1944
     6.2485   6.2485   6.5654   6.5654   7.2298   7.2298   7.5020   7.5020
     7.9646   7.9646   8.0346   8.0346   8.4434   8.4434   8.7070   8.7070
     9.3458   9.3458   9.3605   9.3605   9.8056   9.8056  10.5206  10.5206
    11.0371  11.0371  11.3595  11.3595  11.5492  11.5492  11.5588  11.5588
    11.7358  11.7358  11.8845  11.8845  12.1471  12.1471  12.2863  12.2863
    12.5821  12.5822  12.5936  12.5936  13.3631  13.3631  13.3970  13.3970
    14.3178  14.3178  14.6451  14.6451  14.9972  14.9972  15.0930  15.0930
    15.3208  15.3208  15.4781  15.4781  15.6449  15.6449  15.8839  15.8840
    16.4403  16.4404  16.8507  16.8654

          k = 0.0111 0.5774 0.0000 ( 13718 PWs)   bands (ev):

   -11.7172 -11.7172 -10.0519 -10.0519  -5.5026  -5.5026  -3.8637  -3.8637
    -2.2095  -2.2095  -1.7558  -1.7558   2.7241   2.7241   3.5917   3.5917
     3.7721   3.7721   4.4825   4.4825   4.7473   4.7473   5.0831   5.0831
     5.1294   5.1294   5.4363   5.4363   6.1855   6.1855   6.1947   6.1947
     6.2503   6.2503   6.5664   6.5664   7.2865   7.2865   7.5422   7.5422
     7.9357   7.9357   7.9872   7.9872   8.4400   8.4400   8.7009   8.7009
     9.3219   9.3219   9.3476   9.3476   9.9730   9.9730  10.3389  10.3389
    11.2161  11.2161  11.5396  11.5396  11.5412  11.5412  11.5656  11.5656
    11.6514  11.6514  11.8704  11.8704  12.0832  12.0832  12.0974  12.0974
    12.7567  12.7567  12.7751  12.7751  13.1639  13.1639  13.1879  13.1879
    14.4324  14.4324  14.8106  14.8106  15.0109  15.0109  15.0257  15.0257
    15.3042  15.3042  15.3265  15.3265  15.6435  15.6435  15.8599  15.8599
    16.5245  16.5245  16.7747  16.7748

          k = 0.0000 0.5774 0.0000 ( 13726 PWs)   bands (ev):

   -11.7184 -11.7184 -10.0518 -10.0518  -5.4947  -5.4947  -3.8654  -3.8654
    -2.2093  -2.2093  -1.7661  -1.7661   2.7259   2.7259   3.5910   3.5910
     3.7903   3.7903   4.4669   4.4669   4.7461   4.7461   5.0818   5.0818
     5.1282   5.1282   5.4309   5.4309   6.1842   6.1842   6.1947   6.1947
     6.2509   6.2509   6.5667   6.5667   7.3073   7.3073   7.5584   7.5584
     7.9242   7.9242   7.9687   7.9687   8.4388   8.4388   8.6989   8.6989
     9.3135   9.3135   9.3432   9.3432  10.1161  10.1161  10.1913  10.1913
    11.3261  11.3261  11.4932  11.4932  11.5434  11.5434  11.6097  11.6097
    11.7027  11.7027  11.8160  11.8160  12.0100  12.0100  12.0627  12.0627
    12.8993  12.8993  12.9667  12.9667  12.9672  12.9672  13.0362  13.0362
    14.4814  14.4814  14.8790  14.8790  14.9715  14.9715  15.1201  15.1202
    15.1463  15.1463  15.3285  15.3285  15.6442  15.6442  15.8535  15.8535
    16.5803  16.5803  16.7189  16.7189

     highest occupied, lowest unoccupied level (ev):    -2.8513   -2.8498

!    total energy              =     -16.82464388 Ry
     estimated scf accuracy    <          1.1E-09 Ry

     The total energy is the sum of the following terms:
     one-electron contribution =     -81.11059010 Ry
     hartree contribution      =      41.39002716 Ry
     xc contribution           =      -6.02174630 Ry
     ewald contribution        =      28.91766535 Ry

     convergence has been achieved in   8 iterations

     Writing all to output data dir ./outdir/Silicene.save/

     init_run     :    247.46s CPU     45.65s WALL (       1 calls)
     electrons    :   7665.01s CPU   1185.28s WALL (       1 calls)

     Called by init_run:
     wfcinit      :    244.36s CPU     44.37s WALL (       1 calls)
     potinit      :      1.43s CPU      0.51s WALL (       1 calls)
     hinit0       :      1.55s CPU      0.65s WALL (       1 calls)

     Called by electrons:
     c_bands      :   6606.27s CPU   1007.60s WALL (       9 calls)
     sum_band     :   1053.77s CPU    176.66s WALL (       9 calls)
     v_of_rho     :      2.69s CPU      0.44s WALL (       9 calls)
     mix_rho      :      1.19s CPU      0.40s WALL (       9 calls)

     Called by c_bands:
     init_us_2    :     21.10s CPU      4.47s WALL (    1159 calls)
     init_us_2:cp :     21.09s CPU      4.46s WALL (    1159 calls)
     cegterg      :   6444.84s CPU    983.53s WALL (     549 calls)

     Called by *egterg:
     cdiaghg      :    117.11s CPU     23.08s WALL (    2595 calls)
     h_psi        :   5576.47s CPU    858.97s WALL (    2717 calls)
     g_psi        :     25.29s CPU      3.11s WALL (    2107 calls)

     Called by h_psi:
     h_psi:calbec :    146.95s CPU     13.92s WALL (    2717 calls)
     vloc_psi     :   5257.52s CPU    823.09s WALL (    2717 calls)
     add_vuspsi   :    116.98s CPU     14.35s WALL (    2717 calls)

     General routines
     calbec       :    146.88s CPU     13.92s WALL (    2717 calls)
     fft          :      2.36s CPU      0.73s WALL (     179 calls)
     ffts         :      1.26s CPU      0.45s WALL (      72 calls)
     fftw         :   4466.28s CPU    705.04s WALL (  696880 calls)
     interpolate  :      1.58s CPU      0.52s WALL (      36 calls)

     Parallel routines

     PWSCF        :      2h11m CPU  20m32.70s WALL


   This run was terminated on:  18:52:24  24Aug2022            

=------------------------------------------------------------------------------=
   JOB DONE.
=------------------------------------------------------------------------------=
