
     Program PWSCF v.7.0 starts on 24Aug2022 at 18:25:30 
        Git branch: HEAD
        Last git commit: bcbb9787c58f17a467653707917172ffc4053dd9-dirty
        Last git commit date: Tue Dec 21 10:27:04 2021 +0000
        Last git commit subject: Merge branch pw2gt_cmplx into develop         

     This program is part of the open-source Quantum ESPRESSO suite
     for quantum simulation of materials; please cite
         "P. Giannozzi et al., J. Phys.:Condens. Matter 21 395502 (2009);
         "P. Giannozzi et al., J. Phys.:Condens. Matter 29 465901 (2017);
         "P. Giannozzi et al., J. Chem. Phys. 152 154105 (2020);
          URL http://www.quantum-espresso.org", 
     in publications or presentations arising from this work. More details at
     http://www.quantum-espresso.org/quote

     Parallel version (MPI & OpenMP), running on       6 processor cores
     Number of MPI processes:                 1
     Threads/MPI process:                     6

     MPI processes distributed on     1 nodes
     13480 MiB available memory on the printing compute node when the environment starts

     Reading input from scf.in

     Current dimensions of program PWSCF are:
     Max number of different atomic species (ntypx) = 10
     Max number of k-points (npk) =  40000
     Max angular momentum in pseudopotentials (lmaxx) =  4

     Subspace diagonalization in iterative solution of the eigenvalue problem:
     a serial algorithm will be used


     G-vector sticks info
     --------------------
     sticks:   dense  smooth     PW     G-vecs:    dense   smooth      PW
     Sum        1333     877    253               201961   109663   17045

     Using Slab Decomposition



     bravais-lattice index     =            4
     lattice parameter (alat)  =       7.3132  a.u.
     unit-cell volume          =    1750.5683 (a.u.)^3
     number of atoms/cell      =            2
     number of atomic types    =            1
     number of electrons       =         8.00
     number of Kohn-Sham states=          100
     kinetic-energy cutoff     =      60.0000  Ry
     charge density cutoff     =     360.0000  Ry
     scf convergence threshold =      1.0E-08
     mixing beta               =       0.2500
     number of iterations used =            8  plain     mixing
     Exchange-correlation= PBE
                           (   1   4   3   4   0   0   0)
     Non magnetic calculation with spin-orbit


     celldm(1)=   7.313240  celldm(2)=   0.000000  celldm(3)=   5.167959
     celldm(4)=   0.000000  celldm(5)=   0.000000  celldm(6)=   0.000000

     crystal axes: (cart. coord. in units of alat)
               a(1) = (   1.000000   0.000000   0.000000 )  
               a(2) = (  -0.500000   0.866025   0.000000 )  
               a(3) = (   0.000000   0.000000   5.167959 )  

     reciprocal axes: (cart. coord. in units 2 pi/alat)
               b(1) = (  1.000000  0.577350 -0.000000 )  
               b(2) = (  0.000000  1.154701  0.000000 )  
               b(3) = (  0.000000 -0.000000  0.193500 )  


     PseudoPot. # 1 for Si read from file:
     ../../pseudos/ONCVPSP/abinit/Si_ONCV_PBE_fr.upf
     MD5 check sum: dec843b60d969cba929ba255abf5e6d3
     Pseudo is Norm-conserving + core correction, Zval =  4.0
     Generated using ONCVPSP code by D. R. Hamann
     Using radial grid of 1528 points, 10 beta functions with: 
                l(1) =   0
                l(2) =   0
                l(3) =   1
                l(4) =   1
                l(5) =   1
                l(6) =   1
                l(7) =   2
                l(8) =   2
                l(9) =   2
               l(10) =   2

     atomic species   valence    mass     pseudopotential
        Si             4.00    28.08500     Si( 1.00)

     12 Sym. Ops., with inversion, found



   Cartesian axes

     site n.     atom                  positions (alat units)
         1           Si  tau(   1) = (  -0.0000000   0.5773503  -0.0580258  )
         2           Si  tau(   2) = (   0.5000000   0.2886751   0.0580258  )

     number of k points=    19
                       cart. coord. in units 2pi/alat
        k(    1) = (   0.0000000   0.0000000   0.0000000), wk =   0.0069444
        k(    2) = (   0.0000000   0.0962250   0.0000000), wk =   0.0416667
        k(    3) = (   0.0000000   0.1924501   0.0000000), wk =   0.0416667
        k(    4) = (   0.0000000   0.2886751   0.0000000), wk =   0.0416667
        k(    5) = (   0.0000000   0.3849002   0.0000000), wk =   0.0416667
        k(    6) = (   0.0000000   0.4811252   0.0000000), wk =   0.0416667
        k(    7) = (   0.0000000  -0.5773503   0.0000000), wk =   0.0208333
        k(    8) = (   0.0833333   0.1443376   0.0000000), wk =   0.0416667
        k(    9) = (   0.0833333   0.2405626   0.0000000), wk =   0.0833333
        k(   10) = (   0.0833333   0.3367877   0.0000000), wk =   0.0833333
        k(   11) = (   0.0833333   0.4330127   0.0000000), wk =   0.0833333
        k(   12) = (   0.0833333   0.5292377   0.0000000), wk =   0.0833333
        k(   13) = (   0.1666667   0.2886751   0.0000000), wk =   0.0416667
        k(   14) = (   0.1666667   0.3849002   0.0000000), wk =   0.0833333
        k(   15) = (   0.1666667   0.4811252   0.0000000), wk =   0.0833333
        k(   16) = (   0.1666667   0.5773503   0.0000000), wk =   0.0416667
        k(   17) = (   0.2500000   0.4330127   0.0000000), wk =   0.0416667
        k(   18) = (   0.2500000   0.5292377   0.0000000), wk =   0.0833333
        k(   19) = (   0.3333333   0.5773503   0.0000000), wk =   0.0138889

     Dense  grid:   201961 G-vectors     FFT dimensions: (  45,  45, 240)

     Smooth grid:   109663 G-vectors     FFT dimensions: (  40,  40, 192)

     Estimated max dynamical RAM per process >       1.35 GB

     Initial potential from superposition of free atoms

     starting charge       7.9988, renormalised to       8.0000

     negative rho (up, down):  5.732E-06 0.000E+00
     Starting wfcs are   16 randomized atomic wfcs +   84 random wfcs

     total cpu time spent up to now is       15.3 secs

     per-process dynamical memory:  1073.8 Mb

     Self-consistent Calculation

     iteration #  1     ecut=    60.00 Ry     beta= 0.25
     Davidson diagonalization with overlap
     ethr =  1.00E-02,  avg # of iterations =  8.4

     Threshold (ethr) on eigenvalues was too large:
     Diagonalizing with lowered threshold

     Davidson diagonalization with overlap
     ethr =  8.62E-04,  avg # of iterations =  1.0

     negative rho (up, down):  3.574E-06 0.000E+00

     total cpu time spent up to now is      136.2 secs

     total energy              =     -16.83787989 Ry
     estimated scf accuracy    <       0.06872344 Ry

     iteration #  2     ecut=    60.00 Ry     beta= 0.25
     Davidson diagonalization with overlap
     ethr =  8.59E-04,  avg # of iterations =  1.2

     negative rho (up, down):  1.043E-05 0.000E+00

     total cpu time spent up to now is      168.4 secs

     total energy              =     -16.82713446 Ry
     estimated scf accuracy    <       0.03007157 Ry

     iteration #  3     ecut=    60.00 Ry     beta= 0.25
     Davidson diagonalization with overlap
     ethr =  3.76E-04,  avg # of iterations =  4.7

     negative rho (up, down):  1.082E-05 0.000E+00

     total cpu time spent up to now is      203.4 secs

     total energy              =     -16.83020352 Ry
     estimated scf accuracy    <       0.00102322 Ry

     iteration #  4     ecut=    60.00 Ry     beta= 0.25
     Davidson diagonalization with overlap
     c_bands:  1 eigenvalues not converged
     ethr =  1.28E-05,  avg # of iterations = 10.3

     negative rho (up, down):  8.346E-06 0.000E+00

     total cpu time spent up to now is      248.7 secs

     total energy              =     -16.83027310 Ry
     estimated scf accuracy    <       0.00006981 Ry

     iteration #  5     ecut=    60.00 Ry     beta= 0.25
     Davidson diagonalization with overlap
     ethr =  8.73E-07,  avg # of iterations =  3.1

     negative rho (up, down):  6.149E-06 0.000E+00

     total cpu time spent up to now is      283.4 secs

     total energy              =     -16.83028579 Ry
     estimated scf accuracy    <       0.00000737 Ry

     iteration #  6     ecut=    60.00 Ry     beta= 0.25
     Davidson diagonalization with overlap
     ethr =  9.21E-08,  avg # of iterations =  1.1

     negative rho (up, down):  4.512E-06 0.000E+00

     total cpu time spent up to now is      315.2 secs

     total energy              =     -16.83028688 Ry
     estimated scf accuracy    <       0.00000011 Ry

     iteration #  7     ecut=    60.00 Ry     beta= 0.25
     Davidson diagonalization with overlap
     ethr =  1.39E-09,  avg # of iterations =  2.0

     negative rho (up, down):  3.287E-06 0.000E+00

     total cpu time spent up to now is      349.6 secs

     total energy              =     -16.83028685 Ry
     estimated scf accuracy    <       0.00000017 Ry

     iteration #  8     ecut=    60.00 Ry     beta= 0.25
     Davidson diagonalization with overlap
     ethr =  1.39E-09,  avg # of iterations =  1.0

     total cpu time spent up to now is      380.4 secs

     End of self-consistent calculation

          k = 0.0000 0.0000 0.0000 ( 13587 PWs)   bands (ev):

   -13.9673 -13.9673  -6.0483  -6.0483  -4.1647  -4.1647  -4.1308  -4.1308
    -1.0534  -1.0534  -0.2944  -0.2944   0.0734   0.0734   0.0925   0.0925
     1.4877   1.4877   1.7311   1.7311   2.6139   2.6139   2.9056   2.9056
     4.0262   4.0262   5.1758   5.1758   5.6445   5.6445   5.8407   5.8407
     5.8603   5.8603   5.8627   5.8627   8.2413   8.2413   8.5320   8.5320
     8.9457   8.9457   8.9463   8.9463  10.7764  10.7764  12.2613  12.2613
    12.3324  12.3324  13.0256  13.0256  13.0280  13.0280  13.4499  13.4499
    13.8378  13.8378  13.8396  13.8396  14.5085  14.5085  14.6096  14.6096
    14.6987  14.6987  14.6991  14.6991  14.9526  14.9526  14.9527  14.9527
    15.0984  15.0984  15.1624  15.1624  15.1627  15.1627  15.2150  15.2150
    15.2153  15.2153  15.2832  15.2832  15.3271  15.3271  16.1047  16.1048
    16.1623  16.1624  16.1676  16.1677  16.1679  16.1681  16.1731  16.1731
    16.1733  16.1735  16.4360  16.4362

          k = 0.0000 0.0962 0.0000 ( 13655 PWs)   bands (ev):

   -13.8866 -13.8866  -5.9939  -5.9939  -4.7562  -4.7562  -4.2910  -4.2910
    -0.6433  -0.6433  -0.2410  -0.2410   0.1593   0.1593   0.3828   0.3828
     1.5782   1.5782   1.8095   1.8095   2.5834   2.5834   2.9957   2.9957
     3.7324   3.7324   5.2485   5.2485   5.3182   5.3182   5.6398   5.6398
     6.1866   6.1866   6.5566   6.5566   8.1781   8.1781   8.6159   8.6159
     8.8063   8.8063   9.2975   9.2975  11.2978  11.2978  11.6272  11.6272
    12.3184  12.3184  12.4126  12.4126  12.4564  12.4564  12.7232  12.7232
    12.9570  12.9570  13.1461  13.1461  13.8182  13.8182  13.8458  13.8458
    14.0934  14.0934  14.1378  14.1378  14.2863  14.2863  14.3355  14.3355
    14.6469  14.6469  14.8391  14.8392  15.2267  15.2267  15.2775  15.2775
    15.4105  15.4105  15.4506  15.4506  16.0137  16.0137  16.0519  16.0520
    16.1224  16.1224  16.3793  16.3793  16.3910  16.3911  16.4484  16.4484
    16.5175  16.5175  16.8068  16.8068

          k = 0.0000 0.1925 0.0000 ( 13701 PWs)   bands (ev):

   -13.6461 -13.6461  -6.1977  -6.1977  -5.5364  -5.5364  -4.6210  -4.6210
    -0.7936  -0.7936  -0.1212  -0.1212   1.1742   1.1742   1.1967   1.1967
     1.8442   1.8442   1.9252   1.9252   2.3493   2.3493   3.2628   3.2628
     3.5087   3.5087   5.1909   5.1909   5.3356   5.3356   5.5493   5.5493
     6.5678   6.5678   7.3061   7.3061   8.3936   8.3936   8.7897   8.7897
     9.1266   9.1266   9.8843   9.8843  10.0527  10.0527  10.8245  10.8245
    11.1006  11.1006  11.7829  11.7829  11.8743  11.8743  12.1849  12.1849
    12.4017  12.4017  12.5146  12.5146  12.6963  12.6963  12.9879  12.9879
    13.0091  13.0091  13.3278  13.3278  13.3282  13.3282  13.7637  13.7637
    14.2943  14.2943  14.3276  14.3276  14.3674  14.3674  14.5431  14.5431
    14.8323  14.8323  14.9288  14.9288  15.9724  15.9724  16.1771  16.1771
    16.2275  16.2276  16.3923  16.3923  16.7149  16.7149  16.7170  16.7170
    16.8465  16.8465  16.9325  16.9326

          k = 0.0000 0.2887 0.0000 ( 13724 PWs)   bands (ev):

   -13.2522 -13.2522  -7.3676  -7.3676  -5.2755  -5.2755  -4.9795  -4.9795
    -1.2228  -1.2228  -0.2181  -0.2181   1.4695   1.4695   2.2706   2.2706
     2.3024   2.3024   2.6330   2.6330   2.7523   2.7523   3.6874   3.6874
     3.8217   3.8217   4.7870   4.7870   5.3858   5.3858   6.0023   6.0023
     6.4541   6.4541   7.8588   7.8588   8.4857   8.4857   8.9919   8.9919
     9.2291   9.2291   9.3062   9.3062   9.3732   9.3732  10.3279  10.3279
    10.4173  10.4173  10.4245  10.4245  10.8598  10.8598  11.5751  11.5751
    11.8008  11.8008  12.3280  12.3280  12.3933  12.3933  12.6179  12.6179
    12.7189  12.7189  12.7650  12.7650  12.7959  12.7959  12.9558  12.9558
    13.2187  13.2187  13.6379  13.6379  13.8838  13.8838  13.9620  13.9620
    14.0281  14.0281  14.2196  14.2196  15.2080  15.2080  15.5801  15.5801
    15.6771  15.6771  15.8380  15.8380  16.0024  16.0024  16.1567  16.1568
    16.4218  16.4218  16.6365  16.6365

          k = 0.0000 0.3849 0.0000 ( 13730 PWs)   bands (ev):

   -12.7228 -12.7228  -8.5588  -8.5588  -5.2744  -5.2744  -4.7887  -4.7887
    -1.6046  -1.6046  -0.8725  -0.8725   1.6464   1.6464   2.9224   2.9224
     3.2651   3.2651   3.3784   3.3784   4.0749   4.0749   4.1982   4.1982
     4.4326   4.4326   4.7214   4.7214   5.2482   5.2482   6.6227   6.6227
     6.6488   6.6488   6.8475   6.8475   7.5577   7.5577   7.7985   7.7985
     8.8550   8.8550   9.0577   9.0577   9.3453   9.3453   9.8230   9.8230
    10.1213  10.1213  10.1925  10.1925  11.0072  11.0072  11.2209  11.2209
    11.4475  11.4475  11.4928  11.4928  11.8044  11.8044  11.8179  11.8179
    12.2113  12.2113  12.2668  12.2668  12.4594  12.4594  12.6919  12.6919
    13.0548  13.0548  13.3483  13.3483  13.3580  13.3580  13.5730  13.5730
    13.8080  13.8080  14.0079  14.0079  14.2812  14.2812  14.4049  14.4049
    14.8875  14.8875  15.5339  15.5339  15.7705  15.7705  15.8121  15.8121
    15.8495  15.8495  17.5120  17.5121

          k = 0.0000 0.4811 0.0000 ( 13714 PWs)   bands (ev):

   -12.1193 -12.1193  -9.5758  -9.5758  -5.4629  -5.4629  -4.2331  -4.2331
    -1.9426  -1.9426  -1.5948  -1.5948   2.2206   2.2206   3.6493   3.6493
     3.7409   3.7409   4.0023   4.0023   4.1922   4.1922   4.8356   4.8356
     5.2445   5.2445   5.5238   5.5238   5.7300   5.7300   6.1451   6.1451
     6.2312   6.2312   6.7167   6.7167   7.3924   7.3924   7.4087   7.4087
     7.6749   7.6749   7.9704   7.9704   9.1763   9.1763   9.7062   9.7062
     9.7494   9.7494   9.9455   9.9455  10.2766  10.2766  10.3686  10.3686
    10.6467  10.6467  11.0806  11.0806  11.5701  11.5701  11.7699  11.7699
    11.9149  11.9149  11.9158  11.9158  12.6590  12.6590  12.7302  12.7302
    12.9290  12.9290  12.9644  12.9644  13.0535  13.0535  13.2056  13.2056
    13.8592  13.8592  14.2323  14.2323  14.6150  14.6150  14.7392  14.7392
    15.2348  15.2348  15.2762  15.2762  15.4987  15.4987  15.7925  15.7925
    15.9593  15.9593  16.5913  16.5914

          k = 0.0000-0.5774 0.0000 ( 13726 PWs)   bands (ev):

   -11.7507 -11.7507 -10.0844 -10.0844  -5.5273  -5.5273  -3.9074  -3.9074
    -2.2534  -2.2534  -1.7962  -1.7962   2.6942   2.6942   3.5567   3.5567
     3.7429   3.7429   4.4366   4.4366   4.7422   4.7422   5.0849   5.0849
     5.1330   5.1330   5.4120   5.4120   6.1884   6.1884   6.1908   6.1908
     6.2391   6.2391   6.5569   6.5569   7.2707   7.2707   7.5208   7.5208
     7.9156   7.9156   7.9602   7.9602   8.4373   8.4373   8.6910   8.6910
     9.3011   9.3011   9.3218   9.3218  10.0893  10.0893  10.1533  10.1533
    11.3170  11.3170  11.4842  11.4842  11.5389  11.5389  11.5953  11.5953
    11.7017  11.7017  11.8218  11.8218  12.0067  12.0067  12.0591  12.0591
    12.9009  12.9009  12.9481  12.9481  12.9590  12.9590  13.0342  13.0342
    14.4681  14.4681  14.8626  14.8626  14.9605  14.9605  15.1142  15.1142
    15.1364  15.1364  15.3191  15.3191  15.6316  15.6316  15.8402  15.8403
    16.5459  16.5459  16.7121  16.7122

          k = 0.0833 0.1443 0.0000 ( 13701 PWs)   bands (ev):

   -13.7259 -13.7259  -6.0065  -6.0065  -5.4244  -5.4244  -4.5968  -4.5968
    -0.2218  -0.2218  -0.1758  -0.1758   0.0342   0.0342   1.3382   1.3382
     1.7594   1.7594   1.9202   1.9202   2.4101   2.4101   3.1744   3.1744
     3.5145   3.5145   5.0682   5.0682   5.3815   5.3815   5.4867   5.4867
     6.7472   6.7472   7.2370   7.2370   8.0481   8.0481   8.7688   8.7688
     8.8196   8.8196  10.0034  10.0034  10.3752  10.3752  11.0761  11.0761
    11.6863  11.6863  11.9270  11.9270  12.1092  12.1092  12.1552  12.1552
    12.3424  12.3424  12.5265  12.5265  12.9463  12.9463  13.1336  13.1336
    13.1566  13.1566  13.3574  13.3574  13.5090  13.5090  14.0695  14.0695
    14.1747  14.1747  15.0591  15.0591  15.1447  15.1447  15.3150  15.3150
    15.3610  15.3610  15.4603  15.4603  15.4999  15.4999  15.8063  15.8063
    15.8437  15.8437  16.2441  16.2441  16.5202  16.5202  16.6502  16.6502
    16.6563  16.6563  16.6958  16.6958

          k = 0.0833 0.2406 0.0000 ( 13715 PWs)   bands (ev):

   -13.4083 -13.4083  -6.8651  -6.8651  -5.4028  -5.4028  -5.0485  -5.0485
    -0.5336  -0.5336  -0.1002  -0.1002   0.8506   0.8506   1.6810   1.6810
     2.1125   2.1125   2.4807   2.4807   2.7019   2.7019   3.5202   3.5202
     3.6789   3.6789   4.4627   4.4627   5.6582   5.6582   5.8309   5.8309
     6.9931   6.9931   8.0305   8.0305   8.3570   8.3570   8.9025   8.9025
     9.1519   9.1519   9.4139   9.4139   9.8788   9.8788  10.1533  10.1533
    10.2797  10.2797  11.0523  11.0523  11.2965  11.2965  11.3369  11.3369
    11.4942  11.4942  11.7502  11.7502  12.4725  12.4725  12.6167  12.6167
    12.8703  12.8703  12.9100  12.9100  13.1427  13.1427  13.6215  13.6215
    13.8061  13.8061  14.1813  14.1813  14.5445  14.5445  14.6794  14.6794
    14.7154  14.7154  14.7647  14.7647  15.1052  15.1052  15.6450  15.6450
    15.8473  15.8473  16.0391  16.0391  16.6263  16.6263  16.6562  16.6562
    16.7973  16.7973  16.8552  16.8555

          k = 0.0833 0.3368 0.0000 ( 13725 PWs)   bands (ev):

   -12.9440 -12.9440  -8.0233  -8.0233  -5.4580  -5.4580  -4.9813  -4.9813
    -0.9710  -0.9710  -0.4721  -0.4721   1.5315   1.5315   2.1383   2.1383
     2.6312   2.6312   2.9967   2.9967   3.5170   3.5170   4.1113   4.1113
     4.1611   4.1611   4.5269   4.5269   5.9287   5.9287   6.3678   6.3678
     6.7794   6.7794   7.3989   7.3989   8.3282   8.3282   8.5789   8.5789
     8.6978   8.6978   9.4219   9.4219   9.5076   9.5076   9.6886   9.6886
     9.8652   9.8652  10.2060  10.2060  10.3476  10.3476  10.7856  10.7856
    10.9314  10.9314  11.7394  11.7394  11.8384  11.8384  11.8961  11.8961
    12.1029  12.1029  12.3006  12.3006  12.9001  12.9001  13.1930  13.1930
    13.3489  13.3489  13.5116  13.5116  14.0088  14.0088  14.1472  14.1472
    14.1980  14.1980  14.4137  14.4137  15.0169  15.0169  15.0930  15.0930
    15.3475  15.3475  15.4643  15.4643  15.5709  15.5709  16.5728  16.5728
    17.1214  17.1215  17.3310  17.3312

          k = 0.0833 0.4330 0.0000 ( 13744 PWs)   bands (ev):

   -12.3636 -12.3636  -9.1136  -9.1136  -5.7418  -5.7418  -4.4413  -4.4413
    -1.5094  -1.5094  -1.0245  -1.0245   1.9654   1.9654   2.9320   2.9320
     3.4461   3.4461   3.7210   3.7210   3.8494   3.8494   4.6192   4.6192
     4.8746   4.8746   5.0835   5.0835   6.1934   6.1934   6.5837   6.5837
     6.8644   6.8644   7.0650   7.0650   7.2005   7.2005   7.3794   7.3794
     8.2337   8.2337   8.4888   8.4888   8.7153   8.7153   9.4861   9.4861
     9.9995   9.9995  10.1419  10.1419  10.2669  10.2669  10.4284  10.4284
    10.5930  10.5930  10.6981  10.6981  11.3841  11.3841  11.4907  11.4907
    11.6136  11.6136  12.3365  12.3365  12.6712  12.6712  13.0129  13.0129
    13.3380  13.3380  13.5098  13.5098  13.6321  13.6321  13.7683  13.7683
    13.9166  13.9166  14.1614  14.1614  14.4355  14.4355  14.6344  14.6344
    14.9951  14.9951  15.1013  15.1013  15.6816  15.6816  16.6690  16.6690
    16.9376  16.9376  17.0502  17.0503

          k = 0.0833 0.5292 0.0000 ( 13754 PWs)   bands (ev):

   -11.7998 -11.7998  -9.9423  -9.9423  -5.8879  -5.8879  -3.9235  -3.9235
    -2.1425  -2.1425  -1.2478  -1.2478   2.4506   2.4506   3.1280   3.1280
     3.8587   3.8587   4.3393   4.3393   4.6473   4.6473   5.1523   5.1523
     5.5165   5.5165   5.6633   5.6633   5.7893   5.7893   5.8795   5.8795
     6.3247   6.3247   6.8830   6.8830   7.0425   7.0425   7.4960   7.4960
     7.9560   7.9560   8.1142   8.1142   8.3238   8.3238   8.9108   8.9108
     9.2073   9.2073   9.5441   9.5441   9.9705   9.9705  10.1745  10.1745
    10.3639  10.3639  11.0881  11.0881  11.2011  11.2011  11.4131  11.4131
    11.5100  11.5100  11.8457  11.8457  12.2636  12.2636  12.4906  12.4906
    13.2793  13.2793  13.3288  13.3288  13.5583  13.5583  13.6047  13.6047
    14.3351  14.3351  14.4735  14.4735  14.6665  14.6665  15.0899  15.0899
    15.2447  15.2447  15.6899  15.6899  15.7972  15.7972  16.2063  16.2063
    16.3819  16.3819  16.7552  16.7553

          k = 0.1667 0.2887 0.0000 ( 13729 PWs)   bands (ev):

   -13.0187 -13.0187  -7.7537  -7.7537  -5.6868  -5.6868  -5.0479  -5.0479
    -0.4992  -0.4992   0.4549   0.4549   0.5959   0.5959   1.6016   1.6016
     2.4941   2.4941   2.9138   2.9138   3.2122   3.2122   4.0630   4.0630
     4.0809   4.0809   4.5754   4.5754   6.1031   6.1031   6.2884   6.2884
     7.5797   7.5797   7.6418   7.6418   8.4414   8.4414   8.7601   8.7601
     9.1810   9.1810   9.3208   9.3208   9.4163   9.4163   9.5668   9.5668
     9.6195   9.6195   9.8856   9.8856  10.0703  10.0703  10.6721  10.6721
    10.6907  10.6907  11.0411  11.0411  11.0899  11.0899  11.9127  11.9127
    12.8376  12.8376  12.8580  12.8580  12.9090  12.9090  13.1273  13.1273
    13.4316  13.4316  13.5563  13.5563  13.8948  13.8948  14.4763  14.4763
    14.9371  14.9371  15.6036  15.6036  15.8668  15.8668  15.8705  15.8705
    16.0375  16.0375  16.1814  16.1814  16.2994  16.2994  16.3878  16.3878
    16.5415  16.5415  16.6041  16.6041

          k = 0.1667 0.3849 0.0000 ( 13754 PWs)   bands (ev):

   -12.4931 -12.4931  -8.7232  -8.7232  -6.2006  -6.2006  -4.5527  -4.5527
    -1.1436  -1.1436   0.2202   0.2202   1.7958   1.7958   1.9252   1.9252
     2.5043   2.5043   3.3506   3.3506   3.5497   3.5497   4.6681   4.6681
     4.6922   4.6922   5.4399   5.4399   6.5929   6.5929   6.9156   6.9156
     7.1068   7.1068   7.5412   7.5412   7.7083   7.7083   7.9619   7.9619
     8.1950   8.1950   8.7394   8.7394   9.0693   9.0693   9.1216   9.1216
     9.2874   9.2874   9.5212   9.5212   9.6570   9.6570  10.1117  10.1117
    10.2628  10.2628  10.6462  10.6462  11.0813  11.0813  11.3155  11.3155
    11.6635  11.6635  11.8291  11.8291  12.5270  12.5270  12.7481  12.7481
    13.8305  13.8305  13.9700  13.9700  14.0794  14.0794  14.5598  14.5598
    14.6197  14.6197  14.7491  14.7491  15.4147  15.4147  15.6138  15.6138
    15.8009  15.8009  15.8417  15.8417  15.9892  15.9892  16.5265  16.5266
    16.9300  16.9300  17.0391  17.0392

          k = 0.1667 0.4811 0.0000 ( 13772 PWs)   bands (ev):

   -11.8846 -11.8846  -9.6366  -9.6366  -6.5083  -6.5083  -3.9801  -3.9801
    -1.8909  -1.8909   0.0154   0.0154   1.9754   1.9754   2.6416   2.6416
     3.3682   3.3682   4.1132   4.1132   4.3626   4.3626   4.8173   4.8173
     5.4887   5.4887   5.5047   5.5047   6.2594   6.2594   6.5488   6.5488
     6.8641   6.8641   7.0756   7.0756   7.3371   7.3371   7.6826   7.6826
     7.8001   7.8001   8.0597   8.0597   8.4412   8.4412   8.7028   8.7028
     8.8082   8.8082   8.9605   8.9605   9.8869   9.8869   9.9616   9.9616
    10.0231  10.0231  10.4003  10.4003  10.7465  10.7465  11.0086  11.0086
    11.8787  11.8787  12.0694  12.0694  12.5800  12.5800  12.9536  12.9536
    13.0019  13.0019  13.1795  13.1795  13.4611  13.4611  14.6478  14.6478
    14.7837  14.7837  14.9555  14.9555  15.2314  15.2314  15.4123  15.4123
    15.5584  15.5584  15.6730  15.6730  16.2909  16.2909  16.4709  16.4709
    16.7186  16.7186  17.0020  17.0020

          k = 0.1667 0.5774 0.0000 ( 13777 PWs)   bands (ev):

   -11.4927 -11.4927 -10.1365 -10.1365  -6.6095  -6.6095  -3.6186  -3.6186
    -2.3232  -2.3232  -0.0564  -0.0564   1.8795   1.8795   3.2616   3.2616
     3.6793   3.6793   5.0160   5.0160   5.1176   5.1176   5.2438   5.2438
     5.3000   5.3000   5.4521   5.4521   5.5418   5.5418   6.3021   6.3021
     6.4483   6.4483   6.4882   6.4882   6.6174   6.6174   7.2671   7.2671
     7.9050   7.9050   8.3964   8.3964   8.6556   8.6556   8.7091   8.7091
     8.7839   8.7839   8.9691   8.9691   9.2830   9.2830   9.8030   9.8030
     9.9060   9.9060  10.5117  10.5117  10.8748  10.8748  11.7401  11.7401
    11.7429  11.7429  11.9576  11.9576  11.9872  11.9872  12.3697  12.3697
    12.4660  12.4660  13.4383  13.4383  13.7938  13.7938  14.4178  14.4178
    15.0724  15.0724  15.2208  15.2208  15.2734  15.2734  15.4686  15.4686
    15.7014  15.7014  15.7481  15.7481  15.9985  15.9985  16.3124  16.3124
    16.4991  16.4991  16.7561  16.7561

          k = 0.2500 0.4330 0.0000 ( 13753 PWs)   bands (ev):

   -11.9221 -11.9221  -9.4620  -9.4620  -6.8068  -6.8068  -4.0102  -4.0102
    -1.7543  -1.7543   1.4507   1.4507   1.5984   1.5984   1.9395   1.9395
     2.5306   2.5306   4.0268   4.0268   4.2791   4.2791   5.2967   5.2967
     5.3380   5.3380   5.4285   5.4285   6.3083   6.3083   7.0810   7.0810
     7.1906   7.1906   7.3657   7.3657   7.5316   7.5316   7.5572   7.5572
     7.6883   7.6883   7.8014   7.8014   8.2825   8.2825   8.6769   8.6769
     8.7765   8.7765   8.9945   8.9945   9.2196   9.2196   9.7471   9.7471
    10.0858  10.0858  10.8265  10.8265  10.8925  10.8925  10.9380  10.9380
    11.2208  11.2208  11.3605  11.3605  11.8033  11.8033  13.3754  13.3754
    13.6800  13.6800  14.0444  14.0444  14.1508  14.1508  14.3092  14.3092
    14.6332  14.6332  14.8058  14.8058  14.9763  14.9763  15.8386  15.8386
    16.0915  16.0915  16.3506  16.3506  16.4176  16.4176  17.3268  17.3268
    17.3377  17.3377  17.5723  17.5726

          k = 0.2500 0.5292 0.0000 ( 13791 PWs)   bands (ev):

   -11.3196 -11.3196 -10.1586 -10.1586  -7.1222  -7.1222  -3.4455  -3.4455
    -2.3672  -2.3672   1.3630   1.3630   1.4805   1.4805   3.1506   3.1506
     3.2366   3.2366   4.6073   4.6073   4.9307   4.9307   5.1107   5.1107
     5.3154   5.3154   5.8218   5.8218   6.0141   6.0141   6.2820   6.2820
     6.3557   6.3557   6.5684   6.5684   7.1348   7.1348   7.3784   7.3784
     7.4552   7.4552   7.5555   7.5555   8.3258   8.3258   8.5070   8.5070
     8.5955   8.5955   8.7187   8.7187   9.4577   9.4577   9.6935   9.6935
    10.2125  10.2125  10.5686  10.5686  10.7706  10.7706  11.0343  11.0343
    11.5215  11.5215  11.8394  11.8394  12.2746  12.2746  12.6040  12.6040
    12.9695  12.9695  13.2918  13.2918  13.6962  13.6962  14.3401  14.3401
    14.7277  14.7277  14.8573  14.8573  15.1447  15.1447  15.8289  15.8289
    16.2520  16.2520  16.4478  16.4478  16.8372  16.8372  17.1637  17.1637
    17.2849  17.2850  17.4528  17.4529

          k = 0.3333 0.5774 0.0000 ( 13815 PWs)   bands (ev):

   -10.7267 -10.7267 -10.7209 -10.7209  -7.3527  -7.3527  -2.8911  -2.8911
    -2.8896  -2.8896   1.1365   1.1365   2.7719   2.7719   3.1858   3.1858
     3.2058   3.2058   4.3245   4.3245   4.3280   4.3280   5.3460   5.3460
     5.8414   5.8414   5.8415   5.8415   6.1298   6.1298   6.2156   6.2156
     6.2156   6.2156   6.3370   6.3370   7.2230   7.2230   7.2230   7.2230
     7.3200   7.3200   7.3201   7.3201   7.4960   7.4960   7.7594   7.7594
     9.2459   9.2459   9.2459   9.2459   9.5382   9.5382   9.5383   9.5383
     9.6901   9.6901  10.0530  10.0530  11.4210  11.4210  11.4218  11.4218
    11.9301  11.9301  12.3766  12.3766  12.3917  12.3917  12.3933  12.3933
    12.7967  12.7967  12.7985  12.7985  13.1507  13.1507  13.9515  13.9515
    14.2559  14.2559  14.2586  14.2586  16.1600  16.1600  16.4564  16.4564
    16.4624  16.4624  16.7059  16.7059  16.7076  16.7076  16.9669  16.9669
    17.3399  17.3399  17.5285  17.5286

     highest occupied, lowest unoccupied level (ev):    -2.8911   -2.8896

!    total energy              =     -16.83028688 Ry
     estimated scf accuracy    <          7.8E-10 Ry

     The total energy is the sum of the following terms:
     one-electron contribution =     -81.09641169 Ry
     hartree contribution      =      41.36941639 Ry
     xc contribution           =      -6.02095692 Ry
     ewald contribution        =      28.91766535 Ry

     convergence has been achieved in   8 iterations

     Writing all to output data dir ./outdir/Silicene.save/

     init_run     :     79.79s CPU     15.23s WALL (       1 calls)
     electrons    :   2353.98s CPU    365.15s WALL (       1 calls)

     Called by init_run:
     wfcinit      :     76.65s CPU     13.98s WALL (       1 calls)
     potinit      :      1.49s CPU      0.52s WALL (       1 calls)
     hinit0       :      1.59s CPU      0.66s WALL (       1 calls)

     Called by electrons:
     c_bands      :   2021.09s CPU    309.30s WALL (       9 calls)
     sum_band     :    327.75s CPU     54.80s WALL (       9 calls)
     v_of_rho     :      2.74s CPU      0.45s WALL (       9 calls)
     mix_rho      :      1.32s CPU      0.41s WALL (       9 calls)

     Called by c_bands:
     init_us_2    :      6.51s CPU      1.39s WALL (     361 calls)
     init_us_2:cp :      6.51s CPU      1.39s WALL (     361 calls)
     cegterg      :   1971.21s CPU    301.90s WALL (     171 calls)

     Called by *egterg:
     cdiaghg      :     35.35s CPU      7.03s WALL (     771 calls)
     h_psi        :   1707.49s CPU    263.50s WALL (     809 calls)
     g_psi        :      7.89s CPU      0.96s WALL (     619 calls)

     Called by h_psi:
     h_psi:calbec :     45.83s CPU      4.34s WALL (     809 calls)
     vloc_psi     :   1607.88s CPU    252.24s WALL (     809 calls)
     add_vuspsi   :     36.45s CPU      4.52s WALL (     809 calls)

     General routines
     calbec       :     45.80s CPU      4.34s WALL (     809 calls)
     fft          :      2.91s CPU      0.76s WALL (     179 calls)
     ffts         :      1.21s CPU      0.45s WALL (      72 calls)
     fftw         :   1365.20s CPU    216.34s WALL (  216364 calls)
     interpolate  :      1.65s CPU      0.53s WALL (      36 calls)

     Parallel routines

     PWSCF        :  40m35.08s CPU   6m20.99s WALL


   This run was terminated on:  18:31:51  24Aug2022            

=------------------------------------------------------------------------------=
   JOB DONE.
=------------------------------------------------------------------------------=
