
     Program PWSCF v.7.0 starts on 25Aug2022 at 11:11: 9 
        Git branch: HEAD
        Last git commit: bcbb9787c58f17a467653707917172ffc4053dd9-dirty
        Last git commit date: Tue Dec 21 10:27:04 2021 +0000
        Last git commit subject: Merge branch pw2gt_cmplx into develop         

     This program is part of the open-source Quantum ESPRESSO suite
     for quantum simulation of materials; please cite
         "P. Giannozzi et al., J. Phys.:Condens. Matter 21 395502 (2009);
         "P. Giannozzi et al., J. Phys.:Condens. Matter 29 465901 (2017);
         "P. Giannozzi et al., J. Chem. Phys. 152 154105 (2020);
          URL http://www.quantum-espresso.org", 
     in publications or presentations arising from this work. More details at
     http://www.quantum-espresso.org/quote

     Parallel version (MPI & OpenMP), running on       6 processor cores
     Number of MPI processes:                 1
     Threads/MPI process:                     6

     MPI processes distributed on     1 nodes
     23014 MiB available memory on the printing compute node when the environment starts

     Reading input from nscf.in

     Current dimensions of program PWSCF are:
     Max number of different atomic species (ntypx) = 10
     Max number of k-points (npk) =  40000
     Max angular momentum in pseudopotentials (lmaxx) =  4

     Subspace diagonalization in iterative solution of the eigenvalue problem:
     a serial algorithm will be used


     G-vector sticks info
     --------------------
     sticks:   dense  smooth     PW     G-vecs:    dense   smooth      PW
     Sum        1189     475    151               270173    68333   11465

     Using Slab Decomposition



     bravais-lattice index     =            4
     lattice parameter (alat)  =       4.6487  a.u.
     unit-cell volume          =     707.3387 (a.u.)^3
     number of atoms/cell      =            2
     number of atomic types    =            1
     number of electrons       =         8.00
     number of Kohn-Sham states=          300
     kinetic-energy cutoff     =      80.0000  Ry
     charge density cutoff     =     800.0000  Ry
     scf convergence threshold =      1.0E-08
     mixing beta               =       0.3000
     number of iterations used =            8  plain     mixing
     Exchange-correlation= PBE
                           (   1   4   3   4   0   0   0)

     celldm(1)=   4.648726  celldm(2)=   0.000000  celldm(3)=   8.130081
     celldm(4)=   0.000000  celldm(5)=   0.000000  celldm(6)=   0.000000

     crystal axes: (cart. coord. in units of alat)
               a(1) = (   1.000000   0.000000   0.000000 )  
               a(2) = (  -0.500000   0.866025   0.000000 )  
               a(3) = (   0.000000   0.000000   8.130081 )  

     reciprocal axes: (cart. coord. in units 2 pi/alat)
               b(1) = (  1.000000  0.577350 -0.000000 )  
               b(2) = (  0.000000  1.154701  0.000000 )  
               b(3) = (  0.000000 -0.000000  0.123000 )  


     PseudoPot. # 1 for C  read from file:
     ../../pseudos/ONCVPSP/abinit/C_ONCV_PBE_sr.upf
     MD5 check sum: be7deea5c8a9eeec940f0cd39a542f08
     Pseudo is Norm-conserving + core correction, Zval =  4.0
     Generated using ONCVPSP code by D. R. Hamann
     Using radial grid of 1248 points,  4 beta functions with: 
                l(1) =   0
                l(2) =   0
                l(3) =   1
                l(4) =   1

     atomic species   valence    mass     pseudopotential
        C              4.00    12.01070     C ( 1.00)

     24 Sym. Ops., with inversion, found



   Cartesian axes

     site n.     atom                  positions (alat units)
         1           C   tau(   1) = (  -0.0000000   0.5773503   0.0000000  )
         2           C   tau(   2) = (   0.5000000   0.2886751   0.0000000  )

     number of k points=    61  Marzari-Vanderbilt smearing, width (Ry)=  0.0001
                       cart. coord. in units 2pi/alat
        k(    1) = (   0.0000000   0.0000000   0.0000000), wk =   0.0327869
        k(    2) = (   0.0111111   0.0192450   0.0000000), wk =   0.0327869
        k(    3) = (   0.0222222   0.0384900   0.0000000), wk =   0.0327869
        k(    4) = (   0.0333333   0.0577350   0.0000000), wk =   0.0327869
        k(    5) = (   0.0444444   0.0769800   0.0000000), wk =   0.0327869
        k(    6) = (   0.0555556   0.0962250   0.0000000), wk =   0.0327869
        k(    7) = (   0.0666667   0.1154701   0.0000000), wk =   0.0327869
        k(    8) = (   0.0777778   0.1347151   0.0000000), wk =   0.0327869
        k(    9) = (   0.0888889   0.1539601   0.0000000), wk =   0.0327869
        k(   10) = (   0.1000000   0.1732051   0.0000000), wk =   0.0327869
        k(   11) = (   0.1111111   0.1924501   0.0000000), wk =   0.0327869
        k(   12) = (   0.1222222   0.2116951   0.0000000), wk =   0.0327869
        k(   13) = (   0.1333333   0.2309401   0.0000000), wk =   0.0327869
        k(   14) = (   0.1444444   0.2501851   0.0000000), wk =   0.0327869
        k(   15) = (   0.1555556   0.2694301   0.0000000), wk =   0.0327869
        k(   16) = (   0.1666667   0.2886751   0.0000000), wk =   0.0327869
        k(   17) = (   0.1777778   0.3079201   0.0000000), wk =   0.0327869
        k(   18) = (   0.1888889   0.3271652   0.0000000), wk =   0.0327869
        k(   19) = (   0.2000000   0.3464102   0.0000000), wk =   0.0327869
        k(   20) = (   0.2111111   0.3656552   0.0000000), wk =   0.0327869
        k(   21) = (   0.2222222   0.3849002   0.0000000), wk =   0.0327869
        k(   22) = (   0.2333333   0.4041452   0.0000000), wk =   0.0327869
        k(   23) = (   0.2444444   0.4233902   0.0000000), wk =   0.0327869
        k(   24) = (   0.2555556   0.4426352   0.0000000), wk =   0.0327869
        k(   25) = (   0.2666667   0.4618802   0.0000000), wk =   0.0327869
        k(   26) = (   0.2777778   0.4811252   0.0000000), wk =   0.0327869
        k(   27) = (   0.2888889   0.5003702   0.0000000), wk =   0.0327869
        k(   28) = (   0.3000000   0.5196152   0.0000000), wk =   0.0327869
        k(   29) = (   0.3111111   0.5388603   0.0000000), wk =   0.0327869
        k(   30) = (   0.3222222   0.5581053   0.0000000), wk =   0.0327869
        k(   31) = (   0.3333333   0.5773503   0.0000000), wk =   0.0327869
        k(   32) = (   0.3222222   0.5773503   0.0000000), wk =   0.0327869
        k(   33) = (   0.3111111   0.5773503   0.0000000), wk =   0.0327869
        k(   34) = (   0.3000000   0.5773503   0.0000000), wk =   0.0327869
        k(   35) = (   0.2888889   0.5773503   0.0000000), wk =   0.0327869
        k(   36) = (   0.2777778   0.5773503   0.0000000), wk =   0.0327869
        k(   37) = (   0.2666667   0.5773503   0.0000000), wk =   0.0327869
        k(   38) = (   0.2555556   0.5773503   0.0000000), wk =   0.0327869
        k(   39) = (   0.2444444   0.5773503   0.0000000), wk =   0.0327869
        k(   40) = (   0.2333333   0.5773503   0.0000000), wk =   0.0327869
        k(   41) = (   0.2222222   0.5773503   0.0000000), wk =   0.0327869
        k(   42) = (   0.2111111   0.5773503   0.0000000), wk =   0.0327869
        k(   43) = (   0.2000000   0.5773503   0.0000000), wk =   0.0327869
        k(   44) = (   0.1888889   0.5773503   0.0000000), wk =   0.0327869
        k(   45) = (   0.1777778   0.5773503   0.0000000), wk =   0.0327869
        k(   46) = (   0.1666667   0.5773503   0.0000000), wk =   0.0327869
        k(   47) = (   0.1555556   0.5773503   0.0000000), wk =   0.0327869
        k(   48) = (   0.1444444   0.5773503   0.0000000), wk =   0.0327869
        k(   49) = (   0.1333333   0.5773503   0.0000000), wk =   0.0327869
        k(   50) = (   0.1222222   0.5773503   0.0000000), wk =   0.0327869
        k(   51) = (   0.1111111   0.5773503   0.0000000), wk =   0.0327869
        k(   52) = (   0.1000000   0.5773503   0.0000000), wk =   0.0327869
        k(   53) = (   0.0888889   0.5773503   0.0000000), wk =   0.0327869
        k(   54) = (   0.0777778   0.5773503   0.0000000), wk =   0.0327869
        k(   55) = (   0.0666667   0.5773503   0.0000000), wk =   0.0327869
        k(   56) = (   0.0555556   0.5773503   0.0000000), wk =   0.0327869
        k(   57) = (   0.0444444   0.5773503   0.0000000), wk =   0.0327869
        k(   58) = (   0.0333333   0.5773503   0.0000000), wk =   0.0327869
        k(   59) = (   0.0222222   0.5773503   0.0000000), wk =   0.0327869
        k(   60) = (   0.0111111   0.5773503   0.0000000), wk =   0.0327869
        k(   61) = (   0.0000000   0.5773503   0.0000000), wk =   0.0327869

     Dense  grid:   270173 G-vectors     FFT dimensions: (  45,  45, 360)

     Smooth grid:    68333 G-vectors     FFT dimensions: (  27,  27, 216)

     Estimated max dynamical RAM per process >       2.70 GB
 ----2D----2D----2D----2D----2D----2D----2D----2D----2D----2D----2D----2D
  The code is running with the 2D cutoff
  Please refer to:
  Sohier, T., Calandra, M., & Mauri, F. (2017), 
  Density functional perturbation theory for gated two-dimensional heterostructures:
  Theoretical developments and application to flexural phonons in graphene.
  Physical Review B, 96(7), 75448. https://doi.org/10.1103/PhysRevB.96.075448
 ----2D----2D----2D----2D----2D----2D----2D----2D----2D----2D----2D----2D

     Initial potential from superposition of free atoms

     starting charge       7.9999, renormalised to       8.0000

     negative rho (up, down):  3.544E-07 0.000E+00
     Starting wfcs are    8 randomized atomic wfcs +  292 random wfcs

     total cpu time spent up to now is       51.7 secs

     Self-consistent Calculation

     iteration #  1     ecut=    80.00 Ry     beta= 0.30
     Davidson diagonalization with overlap
     ethr =  1.00E-02,  avg # of iterations =  6.9

     negative rho (up, down):  2.251E-07 0.000E+00

     total cpu time spent up to now is      324.3 secs

     total energy              =     -24.06413241 Ry
     estimated scf accuracy    <       0.20644155 Ry

     iteration #  2     ecut=    80.00 Ry     beta= 0.30
     Davidson diagonalization with overlap
     ethr =  2.58E-03,  avg # of iterations =  1.1

     negative rho (up, down):  7.912E-06 0.000E+00

     total cpu time spent up to now is      436.0 secs

     total energy              =     -24.03154862 Ry
     estimated scf accuracy    <       0.06706922 Ry

     iteration #  3     ecut=    80.00 Ry     beta= 0.30
     Davidson diagonalization with overlap
     ethr =  8.38E-04,  avg # of iterations =  2.3

     negative rho (up, down):  9.515E-06 0.000E+00

     total cpu time spent up to now is      557.6 secs

     total energy              =     -24.04184448 Ry
     estimated scf accuracy    <       0.00100416 Ry

     iteration #  4     ecut=    80.00 Ry     beta= 0.30
     Davidson diagonalization with overlap
     c_bands:  1 eigenvalues not converged
     ethr =  1.26E-05,  avg # of iterations =  5.2

     negative rho (up, down):  7.330E-06 0.000E+00

     total cpu time spent up to now is      688.7 secs

     total energy              =     -24.04185168 Ry
     estimated scf accuracy    <       0.00018217 Ry

     iteration #  5     ecut=    80.00 Ry     beta= 0.30
     Davidson diagonalization with overlap
     ethr =  2.28E-06,  avg # of iterations =  3.7

     negative rho (up, down):  5.096E-06 0.000E+00

     total cpu time spent up to now is      814.0 secs

     total energy              =     -24.04188000 Ry
     estimated scf accuracy    <       0.00000040 Ry

     iteration #  6     ecut=    80.00 Ry     beta= 0.30
     Davidson diagonalization with overlap
     ethr =  4.97E-09,  avg # of iterations =  1.7

     negative rho (up, down):  3.447E-06 0.000E+00

     total cpu time spent up to now is      929.0 secs

     total energy              =     -24.04188009 Ry
     estimated scf accuracy    <       0.00000006 Ry

     iteration #  7     ecut=    80.00 Ry     beta= 0.30
     Davidson diagonalization with overlap
     ethr =  8.08E-10,  avg # of iterations =  1.2

     total cpu time spent up to now is     1041.7 secs

     End of self-consistent calculation

          k = 0.0000 0.0000 0.0000 (  8603 PWs)   bands (ev):

   -23.6249 -11.7049  -7.0718  -7.0718  -0.9091  -0.1445   0.7577   1.1810
     2.7084   3.4903   4.4177   4.4177   5.4021   6.6234   7.4721   8.6684
     8.7424  10.5192  12.6631  15.1221  17.2297  18.5715  20.3384  22.5528
    24.4486  24.4486  25.6755  27.7404  27.7404  28.6860  29.3633  31.2073
    31.2073  31.7358  31.7358  32.1891  32.3903  32.7828  33.0684  33.1922
    33.1922  33.3761  33.3761  33.6998  33.6998  33.7646  33.7646  33.8967
    33.9991  34.0028  34.1053  34.5342  34.5342  34.7921  34.7921  35.2902
    35.4404  35.4404  35.5402  35.5402  35.6175  35.8550  36.1341  36.2186
    36.9570  36.9570  37.2815  37.2815  37.3751  38.0191  38.0191  38.0490
    38.0490  38.5608  38.9950  39.1255  40.0941  40.2412  40.2412  40.6375
    40.6375  41.1131  41.1131  41.2954  41.2954  41.9122  42.2104  42.3606
    42.9513  43.3826  44.3160  44.3160  44.4383  44.4383  44.7758  44.7758
    44.9581  45.1615  45.1615  45.8386  46.3587  47.5758  47.7239  47.7239
    48.6329  49.1496  49.1496  49.6539  49.6539  49.6578  49.6578  50.4044
    50.8809  51.2362  51.4773  51.4773  51.9179  52.9794  54.7402  54.7402
    54.8827  54.8827  54.9935  55.2802  55.2802  55.7114  56.3268  56.3612
    56.3612  59.0106  59.1354  60.9070  60.9070  60.9452  61.0793  61.0793
    61.6434  61.6434  61.8126  62.2001  62.2973  62.2973  62.6129  66.0448
    66.9890  67.5539  67.5539  68.1642  68.1642  68.6969  68.7382  68.7382
    69.1547  69.1547  69.1880  70.0413  70.0413  70.7634  71.1157  73.7063
    75.1770  75.4409  75.4409  75.9318  76.0060  76.0060  76.3218  76.5682
    76.5682  76.8474  76.8480  76.8480  79.8871  80.5889  82.1064  83.1023
    83.1023  83.9328  84.5096  84.5990  84.5990  84.6580  85.0584  85.0584
    85.3289  85.3289  87.0243  87.4258  88.5559  88.5559  90.3338  90.3338
    91.2406  92.5825  92.5825  93.1319  93.4393  93.6448  93.9619  93.9619
    94.1530  94.4326  94.4326  94.7924  94.7924  94.8086  94.8086  95.3114
    95.5158  96.7556  96.7556  98.4155  98.4155  98.4617  99.1113  99.1244
    99.4541  99.4541  99.5713  99.5713  99.6229  99.8328  99.8328 100.1432
   100.1432 100.1656 100.3793 100.4143 100.7784 100.7784 100.9415 100.9415
   101.0231 101.0778 101.3114 101.3114 102.0468 102.0468 102.1070 102.1469
   102.4643 103.0891 103.1374 103.1374 103.3961 103.3961 103.5062 103.5120
   103.5120 103.8898 104.0501 104.0501 104.2444 104.2444 104.6499 104.6850
   104.6850 104.7758 104.7758 104.7972 104.8126 104.8126 105.7353 105.8448
   105.8448 106.2968 106.4566 106.5075 106.5075 106.5509 106.7222 106.7222
   106.8581 108.0593 108.0593 108.1392 108.2640 108.2640 108.8293 109.7895
   110.1002 110.4818 110.4818 110.8245 110.8245 110.9938 111.4854 111.6178
   111.6178 111.9564 111.9564 112.0673 112.0690 112.8579 113.3938 114.8812
   114.8812 114.9210 114.9210 115.0186

          k = 0.0111 0.0192 0.0000 (  8633 PWs)   bands (ev):

   -23.6161 -11.6943  -7.1084  -7.0914  -0.8972  -0.1324   0.7699   1.1931
     2.7204   3.5023   4.4232   4.4563   5.4146   6.6352   7.4410   8.6836
     8.7546  10.5306  12.6752  15.1325  17.2417  18.6007  20.3437  22.5645
    24.3369  24.3647  25.6047  27.7152  27.8662  28.6973  29.6090  30.5039
    30.7037  31.7738  31.8339  31.8812  32.2191  32.5435  32.6991  32.8579
    32.9163  33.1476  33.3068  33.4434  33.4576  33.8190  33.8663  34.0409
    34.1242  34.4660  34.5045  34.6021  34.6422  34.9042  34.9455  34.9709
    35.3778  35.6112  35.6584  35.7554  35.7701  35.9562  36.2255  36.6422
    36.7441  36.8780  37.1302  37.1706  37.3387  37.8813  38.2297  38.3265
    38.3735  38.7592  39.2905  39.3780  39.3992  40.1147  40.1947  40.3841
    40.5278  41.1970  41.2771  41.3829  41.6441  42.3474  42.5738  42.5868
    42.6257  43.3905  43.7102  44.0522  44.1688  44.1875  44.5971  44.9434
    45.3035  45.4110  45.8203  46.2023  46.4348  47.2765  47.6802  47.9804
    48.1771  48.9686  48.9921  49.1347  49.5984  50.1363  50.1642  50.3952
    50.8681  51.4378  51.6329  51.8444  52.2243  52.6987  54.0619  54.2870
    54.5734  54.6567  54.8576  55.6465  55.7733  56.0443  56.1205  56.6704
    57.3170  58.8716  58.9491  60.3081  60.5999  60.6259  60.9034  60.9524
    61.6287  61.8469  62.0696  62.1263  62.6719  62.7959  63.4133  65.7954
    66.7342  67.0622  67.3067  67.8683  67.9769  68.4806  68.8473  69.1741
    69.2163  69.3966  69.7749  70.0907  70.2292  70.9199  71.1791  73.4711
    74.8316  74.8585  75.1116  75.7660  75.8005  76.1160  76.3809  76.5928
    77.0486  77.1184  77.1785  77.7891  79.9159  80.5825  81.8858  82.7973
    82.9959  83.6311  84.2524  84.3148  84.3433  84.7607  85.4176  85.4687
    85.5454  85.5669  87.2098  87.2430  88.5663  88.6632  89.9308  90.0515
    91.0385  91.8322  92.9864  93.0682  93.0686  93.6755  93.7631  93.8228
    94.0561  94.2327  94.5339  94.8045  94.9697  95.1956  95.5943  95.6686
    96.0449  96.3353  96.3993  97.2935  97.3140  97.8426  98.3117  98.4273
    98.5093  98.6732  98.8025  99.1731  99.3563  99.6256  99.7641  99.9167
   100.3141 100.5041 100.5855 100.6327 100.8910 100.9252 101.0956 101.1756
   101.3677 101.4844 101.8344 101.9322 101.9624 102.1616 102.2246 102.4234
   102.4970 102.5770 102.8102 103.1099 103.1639 103.3855 103.4396 103.7180
   103.7463 103.8356 104.1515 104.3137 104.3678 104.3764 104.3777 104.5770
   104.7500 105.0020 105.0806 105.1622 105.2314 105.5430 105.5906 105.6502
   105.6984 106.1093 106.2941 106.3197 106.6001 106.6073 107.1539 107.2548
   107.5692 107.6448 107.7143 108.3409 108.8150 109.2088 109.2982 109.4861
   109.5651 109.6714 110.3167 110.6264 110.7272 111.3197 111.3795 111.4623
   111.7644 111.8601 112.6320 112.8629 112.9464 113.1710 113.9175 113.9455
   114.2575 114.4785 114.4984 114.5530

          k = 0.0222 0.0385 0.0000 (  8633 PWs)   bands (ev):

   -23.5898 -11.6627  -7.2164  -7.1499  -0.8613  -0.0961   0.8064   1.2294
     2.7563   3.5383   4.4401   4.5695   5.4518   6.6706   7.3488   8.7298
     8.7909  10.5647  12.7113  15.1633  17.2775  18.6871  20.3577  22.5996
    23.9842  24.1455  25.4956  27.6831  28.2082  28.7311  29.5333  29.8357
    30.2120  30.8911  31.1891  31.5096  31.5900  31.9488  32.0056  32.1217
    32.5207  33.1964  33.2308  33.3235  33.5055  33.7469  33.7899  34.0313
    34.0894  34.1061  34.4737  34.7019  34.8826  35.3475  35.3616  35.5965
    35.6530  35.6903  35.7180  35.9328  35.9929  36.2147  36.3585  36.5145
    36.9532  37.0816  37.2323  37.7782  37.8208  37.8528  38.2703  38.3763
    38.4220  38.9360  39.3781  39.4242  39.5123  40.1646  40.2298  40.3852
    40.5266  41.4249  41.5517  41.6219  41.7253  42.3750  42.7514  42.8645
    43.1675  43.1740  43.3647  43.5926  44.0462  44.1630  44.6253  44.9329
    45.6428  45.9813  46.1446  46.7889  46.8150  47.1313  47.3373  47.4781
    48.2549  48.7316  48.9531  48.9696  49.4972  50.1575  50.4678  50.9328
    51.1412  51.8960  52.1140  52.1341  52.2023  53.0888  53.1344  53.5286
    54.0023  54.5088  54.8894  55.4654  56.1589  56.5731  57.0634  57.5112
    58.2923  58.3536  58.7093  59.4505  59.8144  60.1063  60.8163  60.9952
    61.6601  61.7021  62.1430  62.9378  63.5715  63.7612  64.4580  65.2191
    66.0515  66.2369  66.5788  67.7206  67.8688  68.1687  68.8844  69.2046
    69.6062  69.8378  70.0333  70.7541  70.8499  71.4470  71.5881  72.9069
    73.9767  74.0570  74.3553  75.6685  75.6910  75.8968  76.6968  77.2074
    77.7954  77.8681  78.0107  78.7716  80.0555  80.5713  81.3402  82.1413
    82.6393  82.9798  83.9592  84.1006  84.1708  84.8681  85.5328  85.6239
    85.7333  86.3775  87.1183  87.5715  88.7203  88.9992  89.1307  89.2160
    90.5313  91.5570  92.0695  92.4471  92.8750  93.4603  93.4640  93.8473
    94.0743  94.1753  94.4683  94.5813  95.0934  95.1532  95.6982  95.8031
    95.9726  96.3009  96.4107  96.4798  96.6771  97.1737  97.2470  97.3704
    97.3752  97.6638  97.7815  98.0438  98.5297  98.7111  98.9714  99.1056
    99.4283 100.1122 100.1816 100.4054 100.6845 100.9687 101.1128 101.5768
   101.6011 101.6760 101.7780 101.8965 101.9453 102.4105 102.4653 102.5297
   102.6203 102.9239 103.0231 103.0891 103.3305 103.5988 103.6484 103.7004
   104.0129 104.1039 104.3166 104.3670 104.4547 104.5137 104.5944 105.0345
   105.0766 105.2034 105.5080 105.5251 105.7637 105.9869 106.0288 106.1533
   106.2838 106.3092 106.3180 106.7383 107.1866 107.1976 107.3602 107.4919
   107.8158 107.8544 108.3102 108.4557 108.9023 108.9122 109.1460 109.7185
   109.8788 110.3062 110.7052 110.7484 110.8800 111.0515 111.2685 111.3135
   112.2480 112.5435 112.6978 112.8044 113.1378 113.3464 113.6008 113.6038
   113.6669 114.2310 114.2734 114.4864

          k = 0.0333 0.0577 0.0000 (  8641 PWs)   bands (ev):

   -23.5459 -11.6100  -7.3904  -7.2464  -0.8016  -0.0356   0.8672   1.2900
     2.8162   3.5982   4.4690   4.7494   5.5138   6.7294   7.1972   8.8095
     8.8515  10.6214  12.7713  15.2141  17.3370  18.8275  20.3734  22.6582
    23.4317  23.8522  25.4569  27.6701  28.5553  28.6957  28.7830  28.9144
    29.9144  30.1774  30.5757  30.6060  30.9688  31.1828  31.5570  31.8299
    31.9618  32.4389  32.7014  33.0995  33.2552  33.6346  33.7853  33.8752
    33.9065  34.4111  34.6510  34.7222  34.9624  35.1485  35.2351  35.3056
    35.7074  35.8135  36.0261  36.1719  36.7401  36.7815  37.1336  37.1636
    37.2249  37.3180  37.4796  37.8871  38.1299  38.1358  38.1843  38.4641
    38.5775  39.0437  39.3604  39.5010  40.2674  40.4580  40.5634  41.0401
    41.2132  41.2264  41.2967  41.5733  41.6026  42.3678  42.4851  42.7208
    43.0594  43.4259  44.0326  44.3524  44.3571  44.4200  44.7162  45.1776
    45.4935  45.6302  46.3009  46.5680  46.7079  47.2795  47.6605  47.9343
    47.9769  49.0333  49.0591  49.1348  49.7676  50.4446  50.5243  50.9778
    51.1907  51.9078  52.1726  52.2491  52.2814  52.9431  53.1128  53.6747
    54.2722  54.5723  54.9502  55.5376  56.2180  56.9943  57.5025  57.9917
    58.0471  58.5957  58.7878  59.0760  59.5148  59.9778  60.8529  61.0679
    61.7231  61.7231  62.1942  63.6057  64.3744  64.6753  64.7400  65.3301
    65.4745  65.5547  65.7355  67.7178  67.7780  67.8850  68.7323  68.8996
    69.8008  70.2122  70.8227  70.9436  71.7221  72.2946  72.3195  72.5204
    73.1221  73.2222  73.4713  75.6646  75.6857  75.8766  76.7781  78.1369
    78.2465  78.7113  78.8738  79.5714  80.4460  80.6789  80.7132  81.3960
    82.1405  82.3772  83.6303  83.8523  84.1311  84.9140  85.2467  85.4219
    85.7997  87.1443  87.1485  87.6526  88.3272  88.7963  89.2944  89.5428
    89.9032  91.0636  91.1335  91.8660  92.0465  92.0657  93.0241  93.4904
    93.4980  94.0309  94.1227  94.3456  94.3818  94.6858  94.9570  94.9918
    95.0407  95.4941  95.8576  96.2991  96.3536  96.7501  96.8047  96.8465
    97.0002  97.6613  97.6869  97.7828  97.8525  97.9124  98.4150  98.4487
    98.9425  99.0130  99.5971  99.7820 100.1010 100.2538 100.2610 100.4611
   100.7102 101.2432 101.4421 101.6298 101.6776 102.3552 102.4186 102.6621
   102.8901 103.1318 103.2396 103.2759 103.6380 103.7289 103.8802 104.0110
   104.2134 104.3041 104.4329 104.4467 104.5661 105.0811 105.1717 105.3430
   105.4637 105.5188 105.7543 106.2415 106.2688 106.5642 106.6135 106.7171
   106.9437 107.0839 107.3635 107.3821 107.4933 107.5702 108.1379 108.2500
   108.3102 108.4479 108.6674 108.8627 108.8874 109.2839 109.8022 109.8782
   110.0083 110.1774 110.3006 110.5856 111.3409 111.4265 111.4957 111.6020
   112.2092 112.5067 112.5765 112.9849 113.1115 113.1248 113.9256 114.0291
   114.0540 114.3615 114.3627 114.4663

          k = 0.0444 0.0770 0.0000 (  8651 PWs)   bands (ev):

   -23.4845 -11.5364  -7.6227  -7.3794  -0.7180   0.0491   0.9524   1.3748
     2.9000   3.6821   4.5112   4.9839   5.6001   6.8117   6.9893   8.9262
     8.9361  10.7006  12.8553  15.2841  17.4198  19.0164  20.3730  22.7406
    22.7943  23.5296  25.4874  27.5910  27.6506  27.9788  28.8690  28.9466
    29.2119  29.2630  29.5710  29.6290  30.2380  30.5553  31.3439  31.3797
    31.7954  32.1061  32.2519  32.4534  32.9819  33.3522  33.4940  33.8951
    33.9282  34.0853  34.3022  34.4429  34.6407  35.1888  35.6393  35.6960
    35.7550  35.7666  36.1323  36.4478  36.5636  37.0193  37.3085  37.3667
    37.5358  37.7861  37.9827  38.2761  38.2821  38.5107  38.7866  38.7966
    39.3111  39.5307  40.0967  40.0970  40.2234  40.4096  40.6135  41.0462
    41.1592  41.4632  41.6126  41.6702  41.9155  42.5824  42.7229  42.7260
    43.4145  43.5995  44.5800  44.6128  44.8123  44.8825  45.1006  45.2869
    45.4254  45.4579  45.6800  46.2409  46.7378  47.7938  47.8610  47.9243
    48.8425  49.2586  49.4000  49.9541  49.9624  50.3528  50.3598  51.0287
    51.2227  51.6968  51.7045  51.7363  52.3889  53.0032  54.1829  54.5985
    54.7792  55.0184  55.0400  55.9023  56.2832  56.4625  56.9226  57.3547
    57.8860  58.7432  59.0852  59.8946  60.3051  60.5036  60.9939  61.1755
    61.8187  61.8414  62.2625  63.3251  64.1081  64.2302  64.7161  65.2047
    65.9550  65.9714  66.6184  67.0465  67.7828  67.9901  68.6754  68.9445
    69.8489  70.5561  70.8996  70.9806  72.0663  72.4406  72.4482  72.5955
    72.9607  73.2965  73.6092  75.6843  75.7442  75.9481  76.8816  78.0281
    79.1161  79.1868  79.5068  79.7318  80.5171  80.7971  80.9850  81.3188
    81.7845  81.9843  82.7238  83.8490  84.1643  84.8861  84.9508  85.2071
    85.9098  86.5815  87.0326  87.4721  88.1841  89.2816  89.4754  89.7389
    89.9950  90.1849  90.2986  90.6082  90.9304  91.3052  91.5472  92.0443
    92.3546  93.2712  93.5346  93.5383  93.8736  94.6011  94.6891  94.7209
    94.9288  95.0016  95.0833  95.2366  95.4722  95.8376  96.0016  96.0509
    96.3766  96.6867  96.7701  97.5460  97.6216  97.8350  97.9791  98.8930
    98.9972  99.0646  99.0886  99.1233  99.2864  99.5247  99.6284 100.0869
   100.2283 100.3665 100.7306 100.8680 101.2212 101.7836 101.8609 102.3245
   102.4162 103.0363 103.4753 103.5119 103.6304 103.7209 104.0924 104.1468
   104.2496 104.4936 104.6107 104.7748 105.1479 105.3694 105.4665 105.6886
   105.7259 106.3350 106.4322 106.4415 106.8904 106.9565 107.0023 107.0856
   107.5469 107.7951 107.8065 107.8543 107.9818 108.2373 108.5316 108.5823
   109.1968 109.2053 109.4605 109.6532 109.7054 109.7746 109.8904 109.9542
   110.3898 110.7932 111.0317 111.2547 111.3634 111.5363 111.5886 112.0121
   112.2329 112.3039 112.4530 112.6366 112.8643 113.1851 113.9714 114.0586
   114.2774 114.3598 115.1813 115.2316

          k = 0.0556 0.0962 0.0000 (  8639 PWs)   bands (ev):

   -23.4056 -11.4419  -7.9044  -7.5468  -0.6105   0.1580   1.0619   1.4837
     3.0078   3.7899   4.5680   5.2582   5.7106   6.7292   6.9174   9.0448
     9.0853  10.8019  12.9630  15.3717  17.5254  19.2456  20.3121  22.1887
    22.8468  23.2003  25.5651  26.6459  27.0648  27.5193  28.0040  28.3682
    28.5882  28.6626  28.9718  29.2642  29.6465  29.8982  30.4278  30.4995
    31.6090  31.8783  32.1371  32.1605  32.7459  33.0895  33.3427  33.4725
    33.5817  34.1119  34.1455  34.4707  34.6063  35.1080  35.1390  35.8195
    35.8325  35.8818  35.8833  36.3120  36.4743  37.0619  37.3008  37.4158
    37.6599  38.4528  38.5093  38.7041  39.0401  39.1315  39.3829  39.5268
    39.5417  40.0717  40.2415  40.3906  40.4700  40.5331  40.7264  41.1760
    41.2470  41.7711  42.1054  42.1369  42.3753  43.1290  43.2563  43.3089
    43.7341  43.8392  44.3565  44.3780  44.7191  44.8200  44.9659  45.3722
    45.8867  45.9050  46.3886  46.3971  46.9171  48.0063  48.1025  48.5449
    49.0087  49.5579  49.7732  50.0353  50.1790  50.2086  50.4265  50.9710
    51.0013  51.6659  51.8585  52.2337  52.3781  53.5138  55.0842  55.2616
    55.3100  55.3388  55.4998  55.8602  56.1424  56.2648  56.7772  56.7812
    57.0044  59.3690  59.4682  60.9108  61.0669  61.1820  61.3144  61.3857
    61.9806  62.2315  62.3603  62.6780  63.3302  63.4229  63.8384  66.0206
    66.1350  66.8788  66.9358  67.6475  67.9657  68.2127  68.9040  69.0415
    69.7723  70.2947  70.6167  70.8206  71.6955  71.8299  71.9604  73.2449
    73.9049  74.3313  74.6317  75.6574  75.9105  76.1355  77.0153  77.6267
    78.6520  79.0191  79.2736  80.1526  80.8243  80.9416  81.1978  81.3984
    81.5852  82.4330  82.7494  83.8488  84.2402  84.6280  85.0434  85.0477
    86.0014  86.0065  86.2290  87.1680  87.9049  88.3343  88.7873  88.8567
    89.2170  89.5478  89.9111  90.0969  90.1837  90.2462  91.3543  91.3822
    91.5746  92.2397  92.7555  92.8156  93.2870  93.6110  93.7646  94.3075
    94.3167  94.5700  94.6291  94.8003  94.9935  95.0235  95.3019  95.4183
    95.6025  95.9026  96.2556  96.6360  97.0332  97.0560  97.5576  97.8524
    98.1074  98.2057  98.5719  99.1607  99.1857  99.4569  99.5533  99.7167
   100.0704 100.0857 100.3496 100.3693 100.7099 101.3388 101.3689 101.3731
   101.8961 102.6672 103.0455 103.3960 103.6908 103.8984 104.2863 104.6158
   104.7933 105.2731 105.2981 105.3364 105.4995 105.5387 105.5569 105.6283
   106.0429 106.0538 106.2910 106.6277 106.6894 106.7384 107.0588 107.1630
   107.8410 108.1389 108.1728 108.8000 108.8402 109.1207 109.2582 109.4282
   109.7716 109.9102 110.1946 110.2279 110.3773 110.5796 110.6302 110.6575
   110.8544 110.9038 110.9380 111.1761 111.2091 111.3691 111.9406 112.1080
   112.4111 112.4503 113.2100 113.3650 113.7786 113.9417 114.0494 114.2310
   114.6443 115.0368 115.3368 115.3639

          k = 0.0667 0.1155 0.0000 (  8627 PWs)   bands (ev):

   -23.3092 -11.3266  -8.2262  -7.7463  -0.4790   0.2910   1.1957   1.6168
     3.1397   3.9216   4.6408   5.5558   5.8450   6.4215   7.0463   9.1774
     9.2930  10.9249  13.0943  15.4740  17.6536  19.5031  20.0986  21.7465
    22.8711  22.9772  25.6766  25.7225  26.1749  26.9708  27.0879  27.6288
    27.7185  27.8593  28.3722  28.8714  29.0968  29.4840  29.6012  30.2825
    30.9474  31.0451  31.8653  31.9845  32.4434  32.7926  33.1763  33.6363
    33.6369  33.9303  34.2349  34.2391  34.5330  34.8736  35.1288  35.3803
    35.4910  35.9734  35.9829  36.0846  36.2081  37.0290  37.5469  37.9884
    38.2272  38.3293  38.4817  38.6278  38.6890  39.4480  39.8520  39.8823
    40.3740  40.6119  40.6182  40.7566  40.7737  41.5496  41.5644  41.6511
    42.0070  42.1716  42.3690  42.3825  42.5386  43.6504  43.6678  43.7204
    43.7743  43.8800  44.3370  44.5601  44.8147  44.8582  45.0689  45.5766
    46.0509  46.7086  46.8163  47.3631  47.5407  47.9166  48.5163  48.6491
    49.2431  49.4205  49.6153  49.6369  49.9316  50.6765  50.9921  51.1521
    51.2945  52.1756  52.4290  52.6344  53.3550  53.5455  55.1488  55.2865
    55.3081  55.3751  55.3796  56.1843  56.2983  56.3130  56.5472  57.2465
    57.8779  59.5020  59.8240  61.3722  61.5268  61.6375  61.7141  61.8761
    62.2109  62.3723  62.4269  62.8102  62.8529  62.8824  63.3305  65.3496
    66.6447  67.3662  67.8718  68.2355  68.5053  68.6605  69.2292  69.5827
    69.5846  69.6686  70.0685  70.2762  71.4777  71.7640  71.9713  74.0338
    74.9188  74.9814  75.3590  75.8440  76.2272  76.6559  77.1729  77.1811
    77.9956  78.3517  78.5439  79.6156  80.2093  81.1133  81.4006  81.7949
    82.0582  83.3486  83.6707  83.8336  84.2549  84.3032  85.2589  85.2744
    85.4784  85.6912  86.1487  86.3145  86.7776  87.1339  87.2823  87.6898
    87.8947  88.0266  88.4335  89.4266  89.5371  90.4146  90.7684  90.8943
    91.6963  91.9944  92.2800  92.6319  92.7937  92.8882  93.2630  93.4665
    93.8407  93.8497  93.8544  93.8618  94.3797  94.6740  94.6849  94.8075
    94.9675  95.0907  95.5073  95.7672  96.3753  96.4650  96.8063  97.2119
    97.5653  97.6455  97.8150  98.3191  98.6165  98.6820  98.6844  99.0211
    99.3292 100.0287 100.2400 100.4291 100.4642 101.0673 101.4551 101.5391
   101.6354 102.3394 102.4279 103.6075 103.6675 103.6878 103.7697 104.5500
   104.6840 104.9307 105.2755 105.2969 105.5646 105.6831 106.0232 106.1568
   106.5755 106.6638 106.8768 106.9597 107.3889 107.4490 107.7671 107.8491
   107.9498 107.9771 108.0005 108.5010 109.1387 109.1786 109.2835 109.4482
   109.6363 109.7098 110.1543 110.2954 110.3061 110.3705 110.4848 111.1879
   111.5863 111.7308 111.8458 111.9891 112.1755 112.1823 112.4668 113.1714
   113.5167 113.6095 113.6991 113.9195 114.5073 114.5261 114.6464 114.9022
   114.9029 115.0270 115.0397 115.4057

          k = 0.0778 0.1347 0.0000 (  8613 PWs)   bands (ev):

   -23.1955 -11.1908  -8.5795  -7.9751  -0.3237   0.4480   1.3539   1.7741
     3.2955   4.0770   4.7308   5.8602   6.0033   6.0717   7.1983   9.3337
     9.5557  11.0689  13.2491  15.5862  17.8040  19.6672  19.7724  21.5568
    22.5390  23.1318  24.8221  25.3180  25.8019  26.1490  26.2026  26.6936
    26.7997  27.3184  27.5012  28.4491  28.5608  28.7081  29.2466  29.7113
    30.2046  31.1604  31.1878  31.2017  32.4794  32.6488  33.0580  33.0581
    33.7540  34.0081  34.2784  34.2989  34.3242  34.5711  34.8286  35.1437
    35.3021  36.1001  36.2122  36.3097  36.5520  36.6473  37.5150  37.7729
    37.8406  38.2537  38.2763  38.7156  38.8029  39.6702  39.9397  40.2034
    40.7634  41.4545  41.5268  41.6616  41.7547  41.8089  41.9392  42.0317
    42.0697  42.7606  42.9193  42.9436  42.9721  43.4345  43.5068  43.6386
    44.1975  44.3990  44.9213  45.1014  45.2926  45.4153  45.6552  46.0511
    46.3893  46.8830  47.4773  47.6164  47.7822  48.3221  48.4942  48.8108
    48.8352  49.5350  49.7370  50.0147  50.3836  51.0596  51.2695  51.4873
    52.0705  52.5673  53.1888  53.3044  53.5805  54.3884  54.3919  54.7287
    54.8361  55.2978  55.4279  56.1375  56.5086  57.1804  57.6484  58.2679
    59.0158  59.5912  59.7345  61.2430  61.3785  61.4978  61.5319  61.7675
    62.3701  62.4277  62.5683  62.9530  63.5975  63.6102  63.9090  65.0027
    66.8537  67.3799  68.4217  68.4634  68.8610  69.0943  69.2181  69.5420
    69.5944  69.7896  69.9143  70.6455  71.4469  71.8285  72.5067  74.4979
    74.5276  75.6206  75.8803  76.6633  76.8024  77.0176  77.3071  77.4283
    77.5553  77.6809  77.8513  78.3643  79.7506  80.9147  81.7108  81.9553
    82.7555  82.9531  83.6948  84.0129  84.6627  84.7264  84.8241  84.8903
    85.2733  85.6188  85.6358  85.6734  86.0198  86.1032  86.4179  86.6814
    86.9843  87.0326  87.4568  87.6992  88.5000  88.8653  90.1202  90.9173
    90.9735  91.5886  91.7433  91.9271  92.3571  92.5126  92.8963  93.0559
    93.2240  93.6164  93.6189  93.6496  93.7262  93.9485  94.2325  94.3529
    94.5673  95.1103  95.1214  95.1990  95.5498  95.5803  96.0381  96.1925
    96.4765  96.7474  97.2261  97.3691  97.4430  97.8629  98.2846  98.3744
    99.2430  99.6809  99.7935 100.0688 100.4993 100.5926 101.1000 101.2044
   101.7000 102.3343 102.7399 103.1075 103.2454 103.4406 103.7459 104.1782
   104.3847 105.0371 105.0789 105.6206 105.7137 105.7226 106.3090 106.4125
   106.7672 106.8178 107.1668 107.3494 107.7158 107.8352 107.8791 108.0442
   108.1638 108.1854 108.4580 108.7158 108.7218 108.8410 109.2042 109.2917
   109.4729 109.6157 109.9018 110.4534 110.6453 110.6559 111.4378 111.5066
   111.6621 112.3232 112.3871 112.6702 112.9555 113.1007 113.2242 113.5195
   113.5314 113.7790 113.9795 114.0823 114.4973 114.8234 114.8540 115.1337
   115.1427 115.5249 115.6762 115.9258

          k = 0.0889 0.1540 0.0000 (  8593 PWs)   bands (ev):

   -23.0644 -11.0346  -8.9566  -8.2302  -0.1444   0.6292   1.5365   1.9554
     3.4754   4.2561   4.8392   5.6853   6.1570   6.1851   7.3730   9.5138
     9.8785  11.2330  13.4273  15.6987  17.9761  19.1004  20.0295  21.5570
    22.1933  23.3081  23.9456  24.5072  25.2372  25.3505  25.7828  25.9106
    25.9985  26.5540  26.6698  27.6604  27.8367  28.2508  28.9092  29.4187
    29.4861  30.2796  30.3989  31.3553  32.3846  32.5900  32.6175  32.6182
    33.6343  33.9004  33.9017  34.2585  34.4001  34.5900  34.6692  35.3791
    35.5482  36.0115  36.2323  36.3596  36.4479  36.7878  37.3454  37.4703
    37.6367  37.8817  38.0361  38.8820  39.0794  40.0799  40.1908  40.6007
    40.9118  41.2084  41.3730  41.6066  41.8993  42.4380  42.6946  42.7560
    42.8112  43.0305  43.2583  43.2866  43.8209  43.8793  44.4353  44.4602
    44.6437  44.7783  45.3332  45.4049  45.9038  46.2195  46.3750  46.6058
    46.8103  47.0679  47.1641  47.2812  47.9646  48.4966  48.7351  49.0672
    49.6060  50.0464  50.2154  50.7028  50.9587  51.4781  51.7442  52.0330
    52.1846  52.7086  53.5695  53.6439  53.6833  53.9743  54.3688  55.1055
    55.4489  55.5319  55.6086  56.3859  56.6991  58.1112  58.5274  59.3309
    59.4594  59.7664  60.1445  60.6028  60.6813  61.1100  61.6407  61.7534
    62.4675  62.5637  62.6174  63.6629  63.9899  64.6689  64.7579  65.8209
    66.6740  67.1073  68.1630  68.1855  68.6981  68.9339  69.1316  69.2319
    70.4103  70.4958  70.7350  71.7662  71.8297  72.0336  73.1304  73.5379
    74.6072  75.6233  76.5257  76.7572  76.8221  76.9634  76.9716  77.1128
    77.7542  77.9121  78.0488  78.8073  78.9985  80.6860  81.7619  81.8930
    82.1413  82.6460  83.0430  83.1365  83.3347  83.3898  84.1574  84.2110
    85.5077  85.7267  85.7281  85.7424  85.9471  86.1567  86.2761  86.3069
    86.3496  86.6099  86.7853  87.0482  87.1543  88.2759  88.7245  89.6015
    90.1679  90.7721  91.0375  91.4446  91.5724  91.8771  92.0155  92.1564
    92.3086  92.7805  93.0366  93.7626  93.8289  93.9543  94.2794  94.6165
    94.6881  94.7315  94.7502  95.1440  95.1956  95.2046  95.4171  95.5556
    95.6453  95.9004  95.9104  96.6147  96.6210  96.9431  97.5229  98.1037
    98.4778  98.7738  99.3328  99.6633  99.6687  99.9688 100.6441 101.0690
   101.6958 102.5058 102.6805 103.0719 103.6571 103.7478 103.9303 104.1143
   104.4311 104.4826 104.7731 104.8675 104.9416 105.9931 106.1414 106.1950
   106.2206 106.6517 107.1036 107.1207 107.3309 107.7522 107.9018 108.1993
   108.2548 108.3987 108.8493 108.8860 109.0881 109.1448 109.2660 109.6995
   109.8283 110.0265 110.4805 110.7100 110.8590 110.9014 111.6500 111.9425
   112.2583 112.2668 112.5339 112.8276 113.1499 113.1831 113.3730 113.5669
   113.9475 114.1819 114.3594 114.5887 114.7338 114.8064 115.2030 115.3229
   115.4849 115.8136 115.8320 116.1673

          k = 0.1000 0.1732 0.0000 (  8581 PWs)   bands (ev):

   -22.9161 -10.8582  -9.3508  -8.5083   0.0588   0.8343   1.7434   2.1608
     3.6793   4.4588   4.9667   5.2679   6.3906   6.4359   7.5701   9.7174
    10.2632  11.4157  13.6286  15.7916  18.1694  18.5160  20.2377  21.6542
    21.8192  23.0939  23.4700  23.7941  24.3750  24.5328  24.8967  25.0588
    25.6957  25.8856  26.2180  26.7836  26.9932  27.8553  28.1212  29.0890
    29.4128  29.5653  29.6308  30.9282  31.6103  32.4080  32.4972  32.6831
    33.0424  33.4515  34.0795  34.4985  34.5275  34.7808  34.8174  35.3515
    35.5282  35.9151  36.1782  36.3277  36.3846  36.5127  36.8005  37.0978
    37.9360  38.1119  38.6520  39.0421  39.2789  39.6082  40.2454  40.4498
    41.0194  41.1765  41.3432  41.3700  41.6562  42.6303  42.7082  43.0823
    43.7088  43.9090  44.3428  44.3501  44.5116  44.6235  44.9438  45.2719
    45.4109  45.5313  45.7972  45.8786  46.1638  46.2231  46.2673  46.7992
    47.2688  47.3162  47.6703  47.6745  48.1242  49.3024  49.4881  49.8211
    49.8234  50.8676  50.9694  51.1296  51.5684  51.7144  51.8780  52.2384
    52.7009  53.0661  53.1180  53.1928  53.3656  54.5098  55.5828  55.8336
    55.8644  56.1313  56.1446  56.9735  57.1535  58.2627  58.6146  59.5469
    59.8312  59.8412  60.3265  60.8486  61.0889  61.1320  61.7057  61.9307
    62.6692  62.7409  62.8276  63.4243  64.9339  65.7605  65.8005  66.3864
    66.7488  66.9396  67.4623  67.5442  68.5759  68.9722  69.3161  69.3383
    70.6013  71.5660  71.7051  72.1244  72.3673  72.8701  73.0569  73.8182
    74.3627  75.3885  75.8910  76.0492  76.1470  76.7991  76.8489  77.4182
    78.1343  78.3767  78.7889  78.8960  80.0199  80.3205  80.4634  80.9814
    81.3551  81.9934  82.1071  82.1316  82.4369  83.0774  83.0870  83.1914
    84.3753  84.4956  85.0345  85.4495  85.7875  86.0995  86.1131  86.3286
    86.3732  86.8930  87.1072  87.2615  87.6787  87.7301  87.8969  89.2349
    89.4068  89.4525  90.3046  90.4112  90.5549  91.1414  91.1692  91.4455
    91.8854  92.0030  92.3578  92.6517  92.9382  93.1022  93.5363  94.2723
    94.3942  94.4477  94.8418  95.0420  95.1949  95.2344  95.2939  95.7440
    95.8613  95.9558  96.0160  96.0226  96.1171  96.3841  96.7305  96.8973
    97.6176  97.6185  97.8606  98.8338  99.4077 100.0126 100.0545 101.4076
   101.9026 101.9447 102.2471 102.4858 102.6409 102.9770 103.4807 104.4915
   104.7218 104.9078 104.9283 105.1000 105.4176 105.7812 105.8617 105.9758
   105.9966 106.0545 106.3915 106.8859 107.0100 107.1337 107.2175 107.5244
   107.6000 108.0970 108.1983 108.7726 108.9022 109.9927 110.1479 110.2115
   110.4442 110.9230 111.1323 111.1811 111.3011 111.7478 112.0679 112.2125
   112.4039 112.4924 112.6162 112.8059 112.8973 112.9770 113.4852 113.8100
   113.8352 113.9857 114.2190 114.2635 114.3601 114.8708 115.0364 115.0735
   115.0970 115.1668 115.3195 115.5393

          k = 0.1111 0.1925 0.0000 (  8561 PWs)   bands (ev):

   -22.7507 -10.6621  -9.7566  -8.8061   0.2858   1.0633   1.9747   2.3902
     3.9071   4.6848   4.8250   5.1139   6.6196   6.6914   7.7891   9.9446
    10.7069  11.6143  13.8529  15.8232  18.0066  18.3828  20.3396  21.4003
    21.7962  22.2678  23.0430  23.5347  23.7481  23.7619  24.0354  24.2731
    24.8784  25.1547  25.9312  26.1861  26.4270  27.1890  27.3730  28.5669
    28.7746  28.9957  29.8387  30.2576  30.8701  31.8034  31.8480  32.8154
    33.0857  33.3571  34.1540  34.4734  34.5748  34.9872  34.9924  35.0969
    35.4610  35.7488  35.9566  36.0649  36.3077  36.6026  36.8390  37.0625
    38.2398  38.4102  39.0184  39.1805  39.3911  39.4256  39.9341  40.1296
    40.3103  41.2179  41.3978  41.5080  41.7556  42.8008  43.2349  43.2837
    43.8396  44.6567  44.7351  45.2450  45.3384  45.3412  45.6247  45.7332
    45.7934  45.8999  45.9238  46.2805  46.4821  46.7468  46.9669  47.0409
    47.3450  48.2381  48.4752  48.6974  49.3493  49.8349  50.0495  50.3801
    50.7714  50.9601  51.1648  51.3854  51.7984  52.0012  52.2491  52.3531
    52.4716  53.1698  53.3128  53.8712  54.3880  55.0628  56.0246  56.4336
    56.6879  56.8465  56.8484  57.6394  57.7959  58.1936  58.2302  58.9195
    59.0951  60.5791  60.7166  61.3370  61.8999  61.9102  62.1570  62.3132
    62.9322  62.9539  63.1117  63.7625  65.1169  65.7055  66.3125  66.7332
    66.7638  67.2596  67.3913  68.1181  68.4134  69.1708  69.6036  69.6039
    70.2654  71.8435  72.3212  72.5187  72.6230  73.9373  74.0507  74.0799
    74.5707  74.9147  75.0979  75.2798  75.3130  76.8170  76.9141  77.4036
    77.8862  78.5304  78.8386  78.8606  79.2678  79.7518  79.8646  80.1928
    81.0172  81.2695  81.4599  81.6546  82.1158  82.5161  82.6034  82.7919
    83.0584  83.5207  84.2280  84.7265  84.8013  85.7385  85.7522  86.1897
    86.2508  86.4274  86.5842  87.6437  87.9397  88.3553  88.3817  88.9133
    89.2283  89.4355  89.5198  89.6892  89.8655  90.2977  90.3563  90.6326
    90.9005  91.0237  91.5581  92.1095  92.2171  92.2238  92.7098  93.4201
    93.7591  94.0990  94.5874  94.6023  94.6496  94.8590  94.9083  95.1854
    95.4106  95.7043  95.8708  95.9014  96.4893  96.5275  96.6448  96.8996
    97.1717  97.3152  97.7894  98.0234  98.8508  99.5364  99.6917 100.6172
   100.6928 101.4228 101.5995 101.7167 102.0193 102.7478 103.6673 104.3070
   104.3228 104.4264 105.1150 105.1588 105.4806 105.5376 105.5413 106.0671
   106.0802 106.1135 106.4538 106.4841 106.4854 106.5122 106.6179 106.9991
   107.0335 107.7284 107.7719 108.3339 108.7298 109.5076 110.4757 110.8187
   110.9170 111.2371 111.2413 111.7108 111.7197 111.8279 111.8833 111.9227
   112.1391 112.2245 112.4321 112.4653 112.6669 112.7600 112.8110 113.1054
   113.1383 113.5707 113.5843 113.6270 113.7474 114.2013 114.2216 114.3676
   114.6896 115.3360 115.5157 115.5855

          k = 0.1222 0.2117 0.0000 (  8557 PWs)   bands (ev):

   -22.5683 -10.4465 -10.1692  -9.1206   0.5366   1.3162   2.2303   2.6434
     4.1589   4.3619   4.9340   5.2810   6.8720   6.9225   8.0293  10.1951
    11.2028  11.8246  14.1000  15.7232  17.6680  18.6143  20.2596  20.9254
    21.4685  21.9292  22.4860  22.7515  22.9917  23.1993  23.4806  24.0676
    24.0785  24.4775  25.1033  25.4327  26.4130  26.6764  26.6926  27.7436
    27.9958  28.9164  29.5605  30.0849  30.2695  31.0072  31.1423  32.6763
    33.2584  33.4094  33.7171  34.4038  34.6337  34.8903  35.0158  35.3181
    35.3222  35.4806  35.5264  36.2498  36.7120  36.7778  37.0434  37.2506
    38.3758  38.4754  38.8860  38.9373  39.1225  39.2418  39.7970  40.0989
    40.7612  40.7877  41.6573  41.7574  41.9189  43.0144  43.4076  43.4550
    43.8039  44.5695  44.8302  44.8355  45.3993  45.6758  46.0050  46.0652
    46.3866  46.7984  47.0048  47.0525  47.2796  47.7701  47.8755  47.9605
    48.3544  49.1159  49.2556  49.7097  49.9060  50.5326  50.6143  50.9058
    50.9358  50.9594  51.0391  51.6926  51.7418  52.3565  52.5409  52.6020
    53.4963  53.5108  54.3131  55.0504  55.3772  55.5820  56.2760  56.6803
    57.1873  57.2437  57.3528  57.8686  57.8931  58.3367  58.3422  59.0871
    59.3387  60.6943  61.2199  61.4041  62.6474  62.7855  62.7885  63.0425
    63.1049  63.5515  63.6653  64.6728  64.6950  65.0723  65.7149  65.9867
    67.5869  67.6922  68.1501  68.7749  68.9745  69.5361  69.8213  69.9701
    70.2102  71.7543  72.4467  72.7271  73.3698  73.6616  74.2243  74.2916
    74.4718  74.4932  75.1891  75.4606  75.7263  76.4322  76.5958  77.0684
    77.1052  77.3423  78.0546  78.3435  78.4594  79.2260  79.2600  79.6632
    80.5535  80.7380  81.1381  81.1745  82.1093  82.5324  82.5400  82.7618
    83.0226  83.0944  83.6373  83.8352  84.0118  84.2409  85.1464  85.8546
    86.2984  86.3720  86.5137  86.7770  87.7247  87.7828  88.4236  88.7661
    88.8167  89.0657  89.3825  89.4304  89.5676  90.1088  90.1846  90.2416
    90.2800  90.4804  91.3106  91.4003  91.6595  91.9030  91.9804  92.5822
    92.8402  93.3255  93.3985  93.8448  93.8533  94.1579  94.4183  94.8876
    95.1162  95.4718  95.8181  95.9546  95.9863  96.0615  96.1654  97.2433
    97.7837  97.9236  97.9457  98.4220  98.4763  98.5702  99.4947  99.7156
    99.7955 100.5265 100.7903 100.9286 102.0223 102.0496 102.9789 103.4504
   103.6399 104.4315 104.5300 104.9389 104.9740 105.1873 105.2978 105.3633
   105.4828 105.6377 105.9013 106.0926 106.1015 106.8400 107.0734 107.2697
   107.4663 107.8307 108.0999 108.5715 108.5790 108.9701 109.5521 109.7627
   109.7772 110.2482 110.3101 110.4800 110.4841 111.1277 111.2376 111.2410
   111.4100 111.6736 111.6961 111.7523 112.4308 112.4924 112.8487 112.9773
   113.0056 113.1501 113.6562 113.7440 113.8623 114.0300 114.0581 114.2130
   114.4809 115.0085 115.1133 115.2541

          k = 0.1333 0.2309 0.0000 (  8553 PWs)   bands (ev):

   -22.3689 -10.5849 -10.2118  -9.4485   0.8112   1.5927   2.5102   2.9204
     3.8835   4.4345   5.2060   5.4681   7.1316   7.1480   8.2894  10.4689
    11.7404  12.0388  14.3695  15.4502  17.5595  18.8575  19.9583  20.3930
    20.6973  21.7198  21.9621  22.2566  22.3221  22.3885  22.9214  23.3366
    23.8447  24.2515  24.3004  24.8127  25.6635  26.0392  26.9440  26.9510
    27.2517  28.5892  28.8882  29.9879  30.2176  30.3183  30.4524  32.2397
    33.0692  33.3964  33.4127  34.2384  34.4299  34.6161  34.8885  35.5500
    35.5796  35.6169  35.6227  36.4823  36.9501  36.9733  37.2626  37.4702
    38.0601  38.1727  38.5852  38.8174  38.8645  39.3501  39.7974  40.1954
    40.5138  41.5830  41.9875  41.9943  42.0323  42.9049  43.2297  43.4647
    43.9988  44.1941  44.3933  44.6592  45.4653  45.9045  46.3477  46.7059
    47.0823  47.8178  47.9793  47.9981  48.3574  48.6518  48.8226  49.0589
    49.3993  49.5563  49.8807  50.0776  50.3553  50.7189  50.8210  50.8955
    50.9678  51.9377  51.9490  52.0044  52.1874  52.9335  53.3103  53.6981
    53.7749  54.4421  55.6132  55.7162  56.2035  56.5247  56.5381  56.7952
    56.9637  56.9815  57.2759  57.5541  57.8786  59.0492  59.4700  59.9721
    60.2499  60.8613  61.5381  61.7946  63.0292  63.1929  63.2660  63.3219
    63.9989  64.2937  64.4125  64.4972  64.7140  65.1734  65.2750  65.8846
    66.5366  68.4922  68.9861  69.3752  69.6020  70.0192  70.1901  70.5427
    71.2189  71.8263  72.0075  72.3120  72.9418  73.3425  73.6784  73.8939
    74.1415  74.7561  74.8399  75.4314  75.7353  75.8822  76.3845  76.4481
    77.1119  77.1260  77.4116  77.4927  78.4611  78.6620  78.8441  79.4029
    79.5329  79.8876  79.9988  81.1807  81.5859  81.9537  82.3985  82.5398
    82.9522  83.4354  83.4598  83.9229  84.1347  84.2446  84.3128  85.5174
    85.8389  86.0641  86.6065  86.6760  86.7091  87.0914  87.4241  87.9717
    88.0246  88.3604  88.6488  89.1185  89.3108  89.3538  89.9702  90.2314
    90.4765  90.8275  91.1050  91.4560  91.6862  91.6867  91.7792  91.8131
    92.2497  92.4303  92.6196  92.7657  93.0734  93.3669  94.1023  94.5478
    94.8249  95.2479  95.5281  95.8425  95.9812  96.0871  96.2444  96.3912
    96.6964  96.8618  97.8905  98.5415  98.6621  98.9029  99.6677  99.8520
    99.8945  99.9244 100.1487 100.8565 100.9294 101.2995 102.2134 102.6267
   102.9261 103.3305 103.7241 103.9904 104.3243 104.3289 104.3404 104.8751
   105.5221 105.5838 105.8475 106.3200 106.4579 106.5746 106.6061 107.2680
   107.7148 107.8805 107.9562 108.2124 108.2649 108.4290 108.6077 108.6704
   109.0518 109.1674 109.4404 109.6345 109.7382 109.7664 109.7908 110.0403
   110.2030 110.3251 110.5294 111.1761 111.2778 111.5293 111.8379 112.3846
   113.1011 113.2378 113.4663 113.5230 113.9235 114.5183 114.6226 114.6976
   115.0442 115.0957 115.1240 115.2908

          k = 0.1444 0.2502 0.0000 (  8539 PWs)   bands (ev):

   -22.1529 -11.0005  -9.9585  -9.7868   1.1095   1.8928   2.8144   3.2209
     3.3942   4.7339   5.5004   5.6750   7.3225   7.4474   8.5679  10.7658
    12.2410  12.3074  14.6610  15.0710  17.6354  19.0657  19.5284  19.8127
    19.9564  21.0229  21.3589  21.5367  21.6036  22.1760  22.5175  22.8622
    23.2382  23.5230  23.9868  24.7646  24.9256  25.4624  26.1685  26.5582
    27.2442  28.0091  28.2613  29.4463  29.6786  29.9943  30.6720  31.6730
    32.4081  33.1398  33.1536  33.9850  34.3771  34.5266  35.1664  35.7486
    35.7770  35.8323  35.8688  36.6975  36.8806  37.1830  37.3927  37.6042
    37.6603  38.0214  38.1472  38.3841  39.1528  39.8775  39.9519  40.1028
    40.6158  41.8899  41.9862  42.0581  42.3469  42.7556  43.2102  43.4346
    43.4832  44.0147  44.4263  45.0686  45.7070  46.1613  46.6646  47.4247
    47.4725  48.0514  48.4959  48.8905  49.0162  49.5330  49.5562  49.6890
    49.7861  50.2869  50.4059  50.6265  50.8934  51.1641  51.3408  51.8696
    51.9490  52.5685  52.6265  52.6808  53.1856  53.8613  53.9665  54.5337
    54.6493  55.0217  56.1147  56.3410  56.3922  56.4223  56.8125  57.0344
    57.1487  57.3985  57.5007  58.1667  58.2223  60.1672  60.1949  60.2103
    61.4327  61.4815  62.0348  62.3910  63.2613  63.3905  63.6397  63.6983
    63.8008  63.9276  64.1111  64.7286  65.3182  65.3579  66.0011  66.0348
    67.1127  68.9818  69.4148  69.5812  69.6570  70.7222  70.8712  71.1746
    71.3492  71.8514  72.0760  72.4302  72.6081  72.6569  72.9355  73.1029
    73.5813  73.5944  74.1946  74.2882  74.6194  75.7296  76.1216  76.3091
    77.2531  77.2709  77.7627  77.8776  77.9147  78.4967  79.0257  79.0543
    79.3780  79.4199  79.9060  80.2188  80.5532  80.7997  81.8543  81.9522
    82.1063  83.4514  83.9353  84.0904  84.1047  84.5367  85.2231  85.3571
    85.4163  85.7380  86.2262  86.3700  86.6893  86.9447  87.2507  87.2900
    87.5096  87.5422  87.9248  88.2841  88.3964  88.5692  88.8776  89.7329
    89.7950  90.1394  90.5757  90.9670  91.0090  91.6795  91.6971  92.2089
    92.3055  92.4722  92.7965  92.8474  92.9117  93.1126  93.6762  93.9126
    94.1197  94.6093  94.9793  95.3672  95.4592  95.5415  95.9745  96.6167
    96.7243  96.8140  97.3263  97.4882  97.9016  98.5253  99.2694  99.3838
    99.9342 100.2694 100.4346 100.5058 100.8558 101.2212 102.0497 102.1075
   102.2621 102.5549 102.5812 103.2392 103.5040 103.5540 103.5786 104.4789
   104.9282 104.9451 105.1982 105.6485 106.0540 106.0633 106.4040 106.4591
   106.5982 107.0612 107.1640 107.3219 107.3245 107.7453 107.9917 108.0080
   108.1431 108.3361 108.6408 109.0080 109.0309 109.0324 109.0557 109.5884
   109.7075 109.9624 109.9755 110.3303 110.5409 111.1185 111.1876 111.4217
   111.9253 112.4705 113.0661 113.3977 113.5090 113.7801 114.2980 114.4061
   114.4965 115.1142 115.1801 115.2851

          k = 0.1556 0.2694 0.0000 (  8553 PWs)   bands (ev):

   -21.9203 -11.4134 -10.1326  -9.6873   1.4313   2.2161   2.8981   3.1429
     3.5449   5.0566   5.8165   5.9015   7.4991   7.7702   8.8617  11.0856
    12.3999  12.8891  14.6996  14.9740  17.8151  18.7893  19.1996  19.2494
    19.4996  20.2875  20.6881  20.8293  20.8454  21.5991  22.1241  22.6394
    22.7715  22.8981  23.5585  24.2418  24.9361  24.9852  25.4174  25.9674
    27.3424  27.5648  27.6927  28.6965  28.9768  30.0703  31.0017  31.0817
    31.8176  32.4873  32.6223  34.1572  34.4171  34.5215  35.4025  35.7773
    35.8663  36.1253  36.1415  36.8127  36.8539  37.0235  37.2903  37.4507
    37.4802  37.9881  38.3534  38.4204  39.4784  39.9897  40.1078  40.3146
    40.8734  41.6445  41.7897  41.8921  42.5859  42.7054  42.9490  43.1553
    43.8141  44.1436  44.6650  45.8932  45.9861  46.3871  47.0286  47.6660
    47.6926  48.0000  48.2965  48.5315  49.0356  49.8704  50.3220  50.6606
    51.0679  51.2911  51.4132  51.5953  51.7574  52.3685  52.4110  52.4281
    52.6808  53.1494  53.5017  53.7749  53.9744  54.2339  54.8772  55.1784
    55.4537  55.5619  55.7681  56.1428  56.2811  56.9048  57.1262  57.8114
    57.8968  58.1069  58.3526  58.8986  59.2855  60.0741  60.6975  60.9833
    62.4158  62.5504  62.6156  62.9377  63.2568  63.3578  63.4287  63.7006
    63.7471  64.1175  64.3615  64.4871  64.6258  66.5986  67.1341  67.3633
    67.9747  68.9697  69.2554  69.5843  70.0665  70.0722  70.8899  71.2733
    71.3317  71.4004  71.7727  72.0726  72.2998  72.4244  72.4478  72.5667
    72.8098  73.7408  73.8099  73.9009  74.3329  74.6527  75.1621  76.2097
    76.4995  76.8356  77.9764  78.1249  78.3336  78.5982  78.8297  79.2070
    79.3743  79.6007  80.0475  80.1467  80.3582  80.4110  81.0709  81.2712
    81.3035  82.2897  83.1375  83.6224  84.3724  84.7635  84.8895  85.4825
    86.2170  86.3850  86.5005  86.5121  86.6210  86.6882  86.8224  86.9665
    87.1181  87.3143  87.3218  87.5378  87.8246  87.8664  87.9340  88.7070
    89.0159  89.7775  89.8534  90.0571  90.1985  91.0278  91.0484  91.5774
    91.7652  92.4417  92.5512  93.1660  93.2454  93.3720  93.5262  93.9675
    94.0546  94.1376  94.5196  94.7673  95.1220  95.3041  95.8141  96.6422
    96.7061  96.9698  96.9776  97.0939  97.5417  97.7332  97.9531  98.6478
    99.0771  99.2164  99.8936 100.5492 101.1542 101.1782 101.8321 102.0810
   102.2631 102.4662 102.7208 102.7754 102.7859 102.8487 103.3150 103.3406
   103.8360 104.1319 104.1633 104.4092 104.6498 104.9375 104.9478 105.3894
   105.6305 106.0593 106.2894 106.3193 106.5189 106.6394 106.7980 107.5549
   107.7899 107.8660 108.0118 108.0126 108.2811 108.4207 108.5968 108.9118
   109.2138 109.4253 109.4319 110.2151 110.4549 110.6076 111.2841 111.3315
   111.3627 112.4602 112.5153 112.7612 112.7638 112.9446 113.0004 113.5214
   114.2001 114.3298 114.4020 114.5269

          k = 0.1667 0.2887 0.0000 (  8555 PWs)   bands (ev):

   -21.6715 -11.8216 -10.4834  -9.3986   1.7767   2.3986   2.5624   3.4957
     3.8919   5.4025   6.1470   6.1534   7.6651   8.1163   9.1659  11.4281
    12.4600  13.4678  14.4450  15.3074  18.0401  18.1941  18.5690  18.5826
    19.5789  19.7241  20.0343  20.1151  20.1345  20.9190  21.6333  22.0376
    22.0469  22.9241  23.2254  23.7524  24.4399  24.6912  24.9452  25.7352
    26.6727  27.1892  27.9049  27.9692  28.3010  30.0196  30.5100  31.3499
    31.4288  31.7864  32.0093  34.2933  34.3972  34.5582  35.2375  35.9375
    35.9683  36.2195  36.3580  36.6402  36.8488  36.9268  37.0269  37.6595
    37.6877  38.2316  38.6129  38.6762  39.8271  39.9688  40.2095  40.4295
    41.1146  41.1286  41.6603  41.8238  42.1282  42.6842  42.8979  43.7312
    44.1583  44.4421  44.9280  46.2855  46.4058  46.8354  47.5150  47.5260
    47.7412  47.7488  47.8857  48.4918  48.6617  50.8914  51.2389  51.4292
    51.6003  52.5037  52.5607  52.6901  52.8529  53.0443  53.2844  53.2849
    53.5146  53.9580  54.1913  54.4071  54.6040  55.0216  55.1346  55.1765
    55.3340  56.0269  56.5842  57.2382  57.3236  57.4006  57.4149  58.1090
    58.3714  59.1769  59.3584  59.3935  60.0656  60.5612  61.0141  61.6939
    62.5384  62.6286  62.6975  63.1661  63.2008  63.6396  63.8195  63.9651
    64.1324  64.6073  64.6700  64.8587  65.6423  66.9281  67.7237  68.1657
    68.4569  69.0332  69.1027  69.4446  69.7673  69.7782  70.1951  70.5638
    70.7436  71.0266  71.0596  71.1370  71.2444  71.8625  72.6207  72.8459
    72.9903  73.2415  73.7159  74.2277  74.5532  74.7619  75.3611  75.6328
    75.8901  76.9787  76.9934  77.3428  77.7538  78.4547  79.0677  79.0945
    79.9995  80.0785  80.1674  80.2279  80.3751  80.6765  80.8773  80.9971
    81.5236  81.6272  81.6654  83.7313  83.9459  84.6957  84.9632  85.1063
    85.4845  85.5398  85.7290  85.7446  86.3087  86.3933  86.9104  86.9996
    87.0936  87.5431  87.7787  87.8473  87.9271  87.9565  88.1914  88.4479
    88.6328  89.1604  89.2178  89.3320  89.4728  90.1698  90.3751  90.8772
    90.9926  91.0987  91.4153  92.4927  92.5059  93.2076  93.6786  93.7135
    94.0660  94.1881  94.7833  95.0710  95.3109  95.4208  96.0080  96.1612
    96.6858  96.9243  97.0224  97.0512  97.2240  97.2981  97.4354  97.7845
    97.9793  98.3265  99.4077 100.1149 100.2679 100.6741 101.0164 101.0986
   101.6754 101.9929 102.1904 102.3436 102.3491 102.3741 102.5784 102.7951
   103.1146 103.2538 103.4892 103.6457 103.7022 103.7754 103.8142 104.3305
   104.6842 104.8693 105.1355 105.7347 105.8334 105.8828 106.2545 106.5116
   106.6662 107.0680 107.3579 107.4059 107.4848 108.0350 108.0528 108.3663
   108.5870 109.1841 109.4733 109.7160 109.7546 110.1243 110.5940 111.0122
   111.2640 111.3691 111.6687 112.4858 112.8364 113.0855 113.2617 113.2897
   113.2942 113.4727 113.6236 113.9777

          k = 0.1778 0.3079 0.0000 (  8547 PWs)   bands (ev):

   -21.4065 -12.2232 -10.8366  -9.0934   1.8992   2.1455   2.9312   3.8727
     4.2616   5.7707   6.4112   6.5095   7.8233   8.4855   9.4707  11.7928
    12.3737  14.0179  14.3885  15.6593  17.5696  17.9332  17.9686  18.2247
    18.9566  19.2752  19.4156  19.4540  20.0705  20.2577  21.0799  21.3505
    21.4315  22.5279  22.9183  23.7445  23.9514  23.9904  24.5393  25.9425
    26.0269  26.7485  27.2650  27.6650  28.2691  29.6893  29.9813  31.0925
    31.2895  31.3711  31.8160  33.8869  34.5999  34.6954  34.7534  35.7411
    36.0812  36.1730  36.2715  36.9008  36.9068  37.1432  37.2891  37.9621
    37.9836  38.5059  38.8140  38.9376  40.0469  40.1748  40.1862  40.3487
    40.6008  41.0464  41.3837  41.8952  42.1537  42.6519  43.2428  44.3606
    44.4280  44.7800  45.2244  46.1727  46.5842  47.0787  47.2760  47.3661
    47.6029  47.7870  48.5026  48.7821  48.8479  51.5141  51.6654  51.9878
    52.6773  52.8900  53.2554  53.2726  53.5085  53.9780  54.1678  54.1856
    54.3304  54.5863  54.6580  54.8759  55.0697  55.2285  55.6535  56.2701
    56.4735  57.0553  57.4616  57.9951  58.0547  58.2430  58.2913  58.3780
    58.6845  59.1349  60.1603  60.2482  61.1475  61.2466  61.6876  61.9603
    61.9990  62.1240  62.8566  63.1764  63.7751  64.2407  64.2566  64.6938
    64.8977  65.1429  65.4067  65.6595  65.9180  66.9859  67.1820  67.6738
    68.2750  68.3293  68.6604  68.9831  69.4707  69.6957  69.9706  70.2939
    70.4775  70.7982  70.9362  71.3282  71.3735  71.4735  71.5712  72.1230
    72.9511  73.2879  73.5324  74.3843  74.6129  74.9741  75.6590  75.9288
    76.3117  76.6536  76.7611  76.8604  77.5596  78.6306  78.7195  78.7432
    79.3454  79.6111  79.7320  79.8253  80.0688  80.3502  81.3299  81.6292
    82.0909  82.6877  82.7267  83.1059  83.4044  84.0624  84.3087  84.5101
    84.9377  85.0524  85.1315  85.5182  85.7570  85.8486  86.2572  86.3535
    86.9858  87.4999  87.6421  87.7245  88.2458  88.2671  88.5997  88.7152
    89.0055  89.0101  89.0746  89.0795  89.4105  89.9278  89.9657  90.0736
    90.1469  90.2182  90.4321  91.5877  91.7223  92.4466  92.7152  93.3446
    93.3915  93.6976  94.5932  94.7320  95.4122  95.6899  96.1820  96.1834
    96.4380  96.5685  96.9921  97.0481  97.1473  97.4189  97.7540  97.8181
    97.9190  98.4775  98.8092  99.0243  99.5574  99.7437 100.0213 100.2836
   100.4445 100.5267 100.9386 101.0423 101.0798 101.3141 101.5500 101.7076
   101.8372 101.8585 102.4357 102.5158 102.7530 102.7908 103.3244 104.0401
   104.3083 104.5243 104.6649 104.8542 105.2162 105.5977 105.9817 106.1748
   106.3293 106.6685 106.9182 107.0695 107.2351 107.5816 107.6942 107.7726
   107.8240 108.3358 108.3693 108.6539 109.1710 109.7094 110.0623 110.5249
   110.6184 111.1592 111.5939 111.6935 111.7925 112.2265 112.2722 112.7096
   112.7127 112.8058 113.2280 113.3096

          k = 0.1889 0.3272 0.0000 (  8551 PWs)   bands (ev):

   -21.1259 -12.6168 -11.1899  -8.7726   1.4023   2.5374   3.3219   4.2738
     4.6534   6.1601   6.6940   6.8823   7.9755   8.8777   9.7573  12.1793
    12.1809  14.4950  14.5221  16.0234  16.9529  17.3010  17.4342  17.9943
    18.6109  18.7348  18.7534  18.7898  19.6807  20.1867  20.6412  20.6850
    20.8248  21.9397  22.5716  23.3155  23.4553  23.9427  24.1102  25.4454
    26.1896  26.3561  26.5842  27.1285  28.6537  29.1794  29.5116  30.4157
    30.6678  31.5282  32.2150  33.4103  34.2190  34.5354  34.6801  35.4737
    35.7394  36.4282  36.6444  37.2423  37.2630  37.3992  37.5506  38.2982
    38.3248  38.7499  38.7967  39.2606  39.9989  40.0189  40.2118  40.4047
    40.5863  40.6497  41.2388  42.1401  42.5236  42.7714  43.5968  44.5889
    44.8243  45.1167  45.5519  46.0792  46.6381  46.6578  46.7268  47.1272
    48.0241  48.2724  49.1076  49.2260  49.6789  51.5638  51.7920  52.8406
    52.9057  53.0454  53.1556  53.5889  53.9055  54.2690  54.3668  54.8082
    55.2867  55.3949  55.7383  56.0354  56.1688  56.5874  56.7950  57.1084
    57.6011  57.6103  57.7084  58.5461  58.6118  58.9005  59.1079  59.2687
    59.5385  60.0779  60.3133  61.1114  61.1383  61.2601  61.5531  62.3122
    62.6646  63.1139  63.2428  63.4699  64.2357  64.3118  64.8752  65.0377
    65.1444  65.2611  65.4770  65.9343  66.4181  66.7142  67.0338  67.0653
    67.2256  68.1844  68.4112  68.5089  68.6090  69.3782  69.7830  69.8410
    69.9337  70.8453  70.9900  71.0784  71.8029  71.8944  72.3015  72.3634
    72.5651  73.0709  73.7898  74.0325  74.0409  75.0074  75.5825  75.9775
    76.0950  77.0129  77.3457  77.5907  77.6757  77.9519  78.2317  78.7439
    79.1233  79.2133  79.5134  79.8134  79.8776  80.1160  81.4617  81.6519
    81.9093  82.9275  83.0042  83.2173  83.8952  84.2223  84.2378  84.2456
    84.3878  84.8106  84.8522  85.2239  85.4341  85.5089  85.6775  86.0472
    86.2796  86.8183  87.0897  87.1694  87.8042  87.9325  87.9713  88.3992
    88.8465  88.9145  89.0328  89.1471  89.3381  89.6035  89.7321  90.2742
    90.4672  90.6183  90.8136  91.0753  91.3664  91.7220  91.7757  92.0338
    92.7501  93.1031  93.6037  94.3104  94.8368  95.3718  95.4791  95.9067
    96.1156  96.2739  96.8309  96.8610  97.6189  97.8276  98.2415  98.3587
    98.4070  98.4519  98.5863  98.6613  98.9267  98.9298  99.2180  99.2562
    99.2675  99.4260  99.6320  99.6899  99.9361 100.0846 100.4864 100.6100
   100.7586 100.8016 100.9800 101.2288 101.3161 101.4282 102.3997 102.5744
   102.6617 103.4766 103.8863 104.5735 105.0719 105.6993 105.9415 105.9899
   106.0865 106.1437 106.2760 106.7436 107.2023 107.2199 107.4637 107.4861
   107.7136 108.0920 108.2578 108.2876 108.4477 109.3634 109.5115 109.6696
   109.6714 110.0233 110.6316 110.6381 111.1386 111.3791 111.4275 112.1751
   112.2597 112.3810 112.4585 113.2438

          k = 0.2000 0.3464 0.0000 (  8553 PWs)   bands (ev):

   -20.8300 -13.0013 -11.5412  -8.4371   0.9106   2.9524   3.7334   4.6990
     5.0662   6.5678   6.9962   7.2673   8.1232   9.2926   9.9883  11.9966
    12.5865  14.7760  14.8135  16.2453  16.5056  16.6783  17.0313  17.4138
    17.9609  18.1437  18.1485  18.5921  19.4362  19.7476  20.0557  20.2228
    20.7177  21.3498  22.1878  22.6676  22.9469  23.7354  24.0345  25.0590
    25.9270  25.9883  26.0858  26.9994  28.6068  29.0736  29.1116  29.7589
    30.0377  31.7346  32.6573  32.9268  33.7305  34.0760  34.3364  35.6181
    35.7540  36.6458  37.0239  37.6280  37.6325  37.6423  37.7353  38.6224
    38.7049  38.7914  38.8521  39.4201  39.6707  39.8124  40.2127  40.4911
    40.6325  41.0608  41.2409  42.5086  42.8184  42.9951  43.9065  44.6183
    44.8766  45.3480  45.8460  46.1260  46.3026  46.4539  46.5515  47.4197
    48.4613  48.9008  49.4884  49.6228  50.6051  51.3670  51.9559  52.7486
    52.7888  52.9928  53.3284  53.7498  54.0692  54.7828  54.8224  55.3746
    55.9467  56.1505  56.7429  57.2354  57.4839  57.4975  57.6424  58.4815
    58.5863  58.5924  58.7819  58.8841  58.9276  59.6567  59.7293  60.1070
    60.3603  60.5560  60.7443  60.8722  61.0958  61.7095  61.8523  62.7479
    63.1183  63.5382  63.8444  64.0327  64.1062  64.5182  64.6252  64.8289
    65.0951  65.6088  65.6338  65.7024  65.8700  66.1702  67.2413  67.2561
    67.3741  67.9740  68.2933  68.4302  68.6756  68.9114  68.9332  69.6609
    70.0794  70.5062  70.5672  71.4416  71.5597  72.1305  72.7625  72.9540
    72.9554  73.1648  73.9832  74.4656  74.7728  75.0499  75.4301  75.4993
    75.8670  75.8884  76.2720  78.1791  78.3941  78.4132  78.5697  79.0669
    79.0943  79.4389  79.6832  79.8658  80.1603  80.2538  80.3944  80.6482
    81.7859  82.3176  83.2126  83.5718  83.7335  84.0208  84.0797  84.0971
    84.7875  84.8714  84.8951  85.0701  85.3054  85.4177  85.9099  85.9532
    85.9581  86.1009  86.1963  86.6526  87.2602  87.3011  87.8294  88.3616
    88.4765  88.4986  88.8289  88.8972  89.0657  89.1629  89.2201  89.6172
    89.7068  90.7364  90.8652  90.9700  91.6796  91.8943  92.0789  92.1507
    92.1736  92.3444  92.9554  93.9960  94.3686  94.6504  94.7962  95.2115
    96.0115  96.0223  96.0452  96.2571  96.7458  96.9243  96.9837  97.3488
    97.4946  98.1003  98.1463  98.2210  98.2548  98.4995  98.6780  98.7698
    98.8285  99.1643  99.2388  99.5502  99.6061  99.7502  99.8590 100.0645
   100.0925 100.1203 100.4030 100.4032 100.4515 100.6992 100.7035 100.8384
   101.9268 102.0555 102.3947 103.7606 103.7746 104.5948 104.7958 105.2213
   105.4019 105.6531 106.0661 106.3107 106.3187 106.9642 107.4087 107.8246
   108.0155 108.2017 108.3113 108.3174 108.4157 108.7031 108.8920 109.1776
   109.5496 109.8363 110.0508 110.1872 110.2020 111.0460 111.1279 111.5242
   111.5781 111.7778 111.8194 112.7859

          k = 0.2111 0.3657 0.0000 (  8569 PWs)   bands (ev):

   -20.5192 -13.3757 -11.8884  -8.0883   0.4262   3.3899   4.1642   5.1482
     5.4984   6.9870   7.3225   7.6559   8.2669   9.7297  10.1101  11.9404
    13.0131  14.8574  15.0884  15.7202  16.0694  16.7794  16.8149  16.8260
    17.3401  17.5170  17.6755  18.1147  19.1719  19.4761  19.5728  19.6302
    20.8101  20.8315  21.8399  22.0484  22.4291  23.4353  23.7638  25.0873
    25.2936  25.6006  25.6212  27.2925  28.0549  28.7834  29.1235  29.4260
    29.5005  31.8498  32.4693  33.1011  33.3971  33.5028  33.8355  35.8902
    36.0003  36.6857  37.3173  37.7957  37.8854  37.9884  38.0601  38.7118
    38.8809  38.9404  38.9809  39.2972  39.6208  39.8642  40.3737  40.8093
    40.9408  41.3409  41.5077  42.9096  42.9626  43.2941  43.9568  44.7194
    44.8449  45.1883  45.4397  46.3387  46.3579  46.5903  47.0172  47.8032
    48.9125  49.6277  49.8872  50.0404  50.6113  51.0894  52.1869  52.3002
    52.7538  53.1052  53.7080  54.2141  54.3207  54.4258  55.0235  55.8682
    56.5338  57.0644  57.4528  58.5955  58.6939  58.7676  58.9050  59.1293
    59.2566  59.5533  59.6055  59.6177  59.7173  59.9195  59.9720  60.0946
    60.2025  60.6636  60.9185  61.6243  61.9052  62.1890  62.3986  62.4999
    62.9506  63.1085  63.5725  63.9468  64.3133  64.3956  64.8378  64.9346
    65.7118  65.7562  65.8366  66.0617  66.2999  66.3858  66.7461  67.2618
    67.3130  67.7087  68.0018  68.1303  68.8655  68.9520  69.2009  69.4799
    70.0406  70.5653  71.2684  71.3994  71.5736  71.8770  73.0488  73.0928
    73.7087  73.9027  74.1475  74.1888  75.0437  75.1810  75.7491  75.8358
    75.8485  75.9969  76.1127  77.7039  77.7431  77.7873  78.3350  78.9025
    79.3461  79.4047  80.4244  80.4893  80.5402  80.7514  80.9919  81.2511
    81.8153  81.9539  82.6056  82.9221  83.2757  83.2844  83.3928  83.7531
    84.1448  84.2535  84.5309  84.5481  85.0855  85.3952  86.2757  86.3142
    86.3540  86.6473  86.7260  86.7764  87.1572  87.1658  87.4610  87.8843
    87.9318  88.0351  88.1344  88.2644  88.6460  89.0199  89.1315  89.3256
    89.7184  90.0877  90.1985  90.2262  90.2815  91.2985  91.6391  92.9655
    92.9668  93.0034  93.2906  94.0492  94.1282  94.2003  94.2810  94.5340
    95.0209  95.1651  95.2508  95.3277  95.7499  95.8212  95.9653  96.0247
    96.2539  96.5890  96.8200  97.4074  97.4258  97.6073  98.0009  98.3640
    98.5007  98.5622  98.8535  98.8657  98.9527  99.0697  99.1357  99.3594
    99.5975  99.6515  99.6684  99.8504 100.2877 100.9980 101.0967 101.4962
   101.5174 101.7644 102.1112 102.2285 102.2478 103.3493 103.7921 103.8800
   104.5421 104.9809 105.0043 105.3102 105.7559 106.3409 106.5142 106.8692
   107.0523 107.3819 107.5873 108.5760 108.9758 108.9890 109.3959 109.5770
   109.9136 109.9656 110.2227 110.5823 110.5874 110.7367 110.8032 110.8091
   111.2708 111.3747 111.4237 111.6371

          k = 0.2222 0.3849 0.0000 (  8583 PWs)   bands (ev):

   -20.1941 -13.7392 -12.2298  -7.7276  -0.0490   3.8497   4.6117   5.6212
     5.9474   7.4006   7.6867   8.0305   8.4064  10.1110  10.1883  12.0741
    13.4560  14.6256  15.1588  15.3887  15.4770  16.2747  16.4670  16.7010
    16.9109  17.2454  17.4978  17.5767  18.6029  18.9852  19.0508  19.6067
    20.5641  20.6543  21.4613  21.6155  21.9081  23.2623  23.2947  24.6840
    25.0582  25.2389  25.3467  27.5404  27.6698  28.5102  28.5167  28.8549
    29.9493  31.7214  32.0592  32.9182  33.1403  33.3605  33.7202  36.1670
    36.3388  36.4817  37.2516  38.0400  38.0991  38.1578  38.4444  38.5943
    38.7279  39.1307  39.3196  39.7003  39.8889  40.0746  40.7471  41.1963
    41.2524  41.5259  41.9801  42.9481  43.2998  43.6371  43.6735  44.7903
    44.9245  44.9826  45.0470  46.6900  46.7420  46.7803  47.5303  48.2169
    49.3729  50.1625  50.2158  50.2652  50.4786  51.0674  51.6043  51.8261
    52.4506  54.0114  54.1603  54.2136  54.6692  54.8293  55.1396  56.3183
    57.4550  57.5949  57.6418  58.7422  59.0552  59.1397  59.2375  59.6431
    59.6758  59.6837  60.0016  60.2420  60.3110  60.3596  60.3987  60.7722
    60.8168  61.1649  61.4612  61.5063  61.7363  62.2282  62.2343  63.0881
    63.3372  63.5898  63.6760  64.0387  64.1478  64.7033  64.9518  65.3902
    65.7077  65.8510  66.3419  66.5300  66.8905  66.9848  67.0500  67.2488
    67.5811  67.6568  67.8127  67.9975  68.1265  69.0309  69.2028  69.6977
    70.4733  70.8110  71.6439  72.2965  72.3069  72.4022  72.8095  72.8347
    73.6790  73.9166  74.1283  74.2524  75.4094  75.6660  76.2700  76.2752
    76.3491  76.5100  76.7452  76.7863  77.6218  77.6549  77.6621  77.7613
    79.2969  80.0914  80.6776  80.9530  81.0358  81.5739  81.7841  81.8018
    81.9417  82.1076  82.3222  82.4032  82.4046  82.8002  82.9087  83.1728
    83.4809  83.5580  84.0788  84.2011  84.7915  84.9386  85.9235  86.1226
    86.1434  86.3548  86.6990  86.8838  87.0246  87.0669  87.6295  87.6340
    87.7440  87.9709  88.2997  88.4483  88.6072  88.6385  88.9400  89.3197
    89.3203  89.7336  89.7851  89.9688  90.4159  90.6054  91.3430  91.7391
    92.0890  92.9060  93.2247  93.2356  93.5209  93.5456  93.8621  93.8996
    94.1914  94.5955  94.7947  94.8381  94.9165  94.9349  95.0512  95.3586
    95.5231  96.0547  96.0763  96.3071  96.6828  96.8709  97.2009  97.2810
    97.3197  97.8151  98.2451  98.2866  98.4686  98.4798  98.5856  99.0209
    99.0859  99.1485  99.3921  99.6767  99.7558 100.4414 100.5650 100.6508
   100.8564 101.4852 102.4158 102.4884 102.5036 103.0659 103.3872 103.7334
   103.8221 103.9802 104.1321 104.3258 104.4716 104.8295 105.4972 105.7950
   105.9868 106.8613 107.3549 108.5357 109.0988 109.2142 109.3689 109.4683
   109.4690 109.5259 109.6949 109.9929 110.5103 110.5557 110.6018 110.8460
   110.9444 110.9867 111.3553 111.3971

          k = 0.2333 0.4041 0.0000 (  8557 PWs)   bands (ev):

   -19.8554 -14.0911 -12.5634  -7.3567  -0.5135   4.3312   5.0710   6.1178
     6.4080   7.7845   8.1090   8.3564   8.5409  10.0824  10.6673  12.3629
    13.9050  14.2486  14.6281  14.9032  15.3873  15.9957  16.0397  16.1273
    16.3263  17.0924  17.4560  17.5683  18.0962  18.4873  18.6972  19.2857
    20.2947  20.7051  20.9142  21.3899  21.4130  22.8142  23.2696  24.0984
    24.5464  24.8369  25.6116  27.1230  27.9039  27.9191  28.2890  28.4897
    30.4098  31.3849  31.7138  32.3442  32.6194  33.5832  34.1836  36.1458
    36.3687  36.7038  36.9287  37.7968  38.0179  38.5330  38.5377  39.0351
    39.0878  39.4468  39.7217  40.2163  40.2945  40.3307  41.1697  41.4806
    41.6319  41.7931  42.4750  42.9204  43.2945  43.5465  43.9175  44.5239
    44.5574  45.2752  45.4262  46.8806  47.1290  47.2379  47.9108  48.6498
    49.5657  49.9026  50.2702  50.4878  50.9019  51.0715  51.5470  51.6040
    51.7279  54.3815  54.8293  55.0314  55.0868  55.1196  55.2959  56.9777
    57.0728  57.2219  58.2316  58.3701  58.5228  58.6867  58.7574  58.8764
    59.0488  59.7795  60.0508  60.2043  60.3044  60.9072  60.9131  61.3846
    61.7438  61.9013  62.1603  62.2432  62.4772  62.6543  62.9815  63.2427
    63.4563  64.0056  64.1402  64.5438  64.6109  65.0180  65.7035  65.7573
    65.9897  66.5232  66.7557  66.8407  66.8414  66.9565  67.1131  67.2852
    67.6554  67.6782  68.0362  68.5633  68.7030  69.1249  69.4524  70.5106
    70.7635  71.0144  71.4301  71.8103  72.8419  73.2891  73.7471  74.0400
    74.0812  74.1101  74.4323  74.5955  74.8947  75.3307  75.3879  75.8257
    76.5618  76.5807  77.2110  77.2299  77.5110  78.2781  78.7922  78.9425
    79.1179  79.7821  80.3840  80.4621  80.7140  81.3055  81.5242  81.7060
    81.7695  81.8400  82.3406  82.4380  82.7780  82.8391  83.0375  83.5188
    83.6109  83.7118  83.9146  83.9750  84.3618  84.5996  85.3650  85.3901
    85.7802  85.8863  85.8907  86.0825  86.5772  86.8823  86.9875  87.0129
    87.6056  87.6593  88.2666  88.7605  88.8037  88.8985  89.0993  89.2312
    89.9848  90.0635  90.3291  90.3464  90.4592  90.5040  90.9747  91.0040
    91.5885  91.6318  91.6755  92.0407  92.3150  92.4044  92.5751  92.7942
    93.0757  93.1885  93.5720  93.9453  94.0068  94.1797  94.4736  94.7763
    95.5670  95.7113  95.8198  95.8864  96.1754  96.5012  96.8881  97.0773
    97.4378  97.4395  97.4902  97.6515  97.7630  97.9242  98.4267  98.5668
    98.6557  98.8230  98.9612  99.4331  99.4995  99.7036  99.8700 100.0685
   100.4113 100.4669 101.2307 101.5404 102.5852 102.8762 102.9848 103.3068
   103.3314 103.3518 103.9369 104.0182 104.4669 104.8337 104.9068 105.0831
   105.4737 106.5531 107.0711 107.6934 108.0051 108.0564 108.6333 108.6771
   109.3184 109.3352 109.3580 109.5486 110.0848 110.0943 110.2501 110.3508
   110.4467 110.4621 110.8738 111.3255

          k = 0.2444 0.4234 0.0000 (  8551 PWs)   bands (ev):

   -19.5043 -14.4308 -12.8874  -6.9778  -0.9658   4.8335   5.5328   6.6377
     6.8702   8.1354   8.5855   8.5868   8.6686  10.1591  11.1646  12.7411
    13.8239  14.0560  14.3493  14.4312  14.9535  15.4797  15.5742  15.7637
    16.0489  16.8592  17.2100  17.4001  17.9418  18.0584  18.7140  18.8410
    19.8917  20.4279  20.8797  20.9686  21.1373  22.4117  23.3391  23.5370
    24.1865  24.4189  25.6938  26.9488  27.3507  27.5512  28.0721  28.7641
    30.7676  31.0917  31.4456  31.7878  32.0769  33.9135  34.6990  35.7745
    36.3654  36.5539  36.9202  37.6879  37.7387  38.9646  38.9982  39.5203
    39.5589  39.7950  40.1324  40.6127  40.7494  40.7647  41.5508  41.6149
    42.0800  42.1215  42.9078  43.0197  43.0641  43.4197  43.7734  44.6971
    44.7195  45.6429  45.6991  46.9173  47.6005  47.7233  48.1062  49.0818
    49.1537  50.2568  50.3040  50.3439  50.4698  50.9597  51.4365  51.7066
    52.5644  54.6899  54.8002  55.5671  55.5694  55.6548  55.6637  55.7898
    56.8866  56.9378  57.3606  57.9722  58.0722  58.2598  58.3130  58.5923
    58.6402  59.1198  59.2336  60.3499  60.4448  60.5004  60.9161  61.6113
    61.9141  62.6169  62.9117  63.2047  63.2710  63.6134  63.6525  64.2060
    64.2682  64.5316  64.6904  65.0383  65.2560  65.2616  66.0411  66.1677
    66.7986  66.8185  66.8825  66.8955  67.3665  67.3874  67.4576  67.7732
    67.8868  68.1075  68.1930  68.8886  69.3288  69.4046  70.2100  70.5129
    71.1415  72.0866  72.0954  72.1668  73.1123  73.3002  73.5375  74.3580
    74.4265  74.7398  74.7508  74.9457  75.2335  75.5029  75.7562  75.9417
    76.4126  76.5055  77.1864  77.4785  78.3289  78.7675  78.7884  78.8770
    79.8354  79.9933  80.2835  80.3956  80.7191  80.8825  81.2806  81.4395
    81.7382  81.7637  82.0927  82.2424  82.3893  82.4948  82.6544  83.1907
    83.4323  83.5793  84.2383  84.3446  84.4213  85.0431  85.0681  85.1294
    85.3629  85.4705  85.5580  86.0655  86.1389  86.1802  86.2853  86.5011
    87.5722  87.9340  88.1317  88.2472  88.3216  88.3839  88.6075  89.5438
    89.5612  90.0058  90.0603  90.1061  90.3681  90.6084  90.6632  90.6688
    91.1073  91.2282  91.2685  91.3972  91.4266  91.6184  91.9628  92.0975
    92.4025  92.4152  92.4690  92.5880  92.7218  93.4668  93.6032  93.9244
    94.1121  94.7018  95.0662  95.1530  95.6243  95.9074  96.6366  96.7957
    96.8589  97.0556  97.4597  97.5864  97.7595  97.8784  97.9285  98.2300
    98.3581  98.8807  98.9941  99.1166  99.1406  99.2688  99.8201  99.8841
   100.1134 100.5932 100.5950 101.0759 101.3710 101.5660 101.9298 102.1171
   102.6242 102.8085 103.2343 103.4029 104.5855 104.8306 105.5544 105.7668
   105.9770 106.3025 106.8955 106.9292 107.2131 107.2925 107.3316 107.9595
   108.9292 108.9697 109.0423 109.1229 109.1343 109.1379 110.0242 110.1370
   110.3693 110.4058 110.9541 111.1462

          k = 0.2556 0.4426 0.0000 (  8547 PWs)   bands (ev):

   -19.1418 -14.7578 -13.1997  -6.5931  -1.4047   5.3555   5.9779   7.1802
     7.3143   8.4633   8.7270   8.7868   9.1023  10.4127  11.6763  13.1521
    13.3958  13.6076  13.8163  14.4750  14.8278  14.9670  15.0846  15.2236
    15.7375  16.8044  16.9199  17.0408  17.4156  18.2223  18.4289  18.8296
    19.5496  20.0678  20.3815  20.8669  21.0774  22.2449  23.0000  23.1236
    23.9919  24.2605  25.4824  26.8050  27.0492  27.1151  27.8416  29.2386
    30.4707  31.2519  31.2588  31.4648  31.5520  34.2451  35.2302  35.4139
    36.1131  36.2303  36.6732  37.8194  37.9797  39.3860  39.4401  39.9637
    40.1089  40.1360  40.4816  40.9272  41.2196  41.3233  41.5738  42.0721
    42.3932  42.4438  42.6770  43.2548  43.3991  43.5108  43.5284  45.1311
    45.1697  45.5271  46.0205  47.0376  48.0785  48.1348  48.2306  48.9184
    49.3994  49.9496  50.1045  50.1420  50.5250  51.1107  51.9379  52.1262
    53.3092  53.6926  54.6538  55.1511  55.4595  55.7676  55.9994  56.0648
    56.0916  56.4329  56.7162  56.7629  57.4479  57.5411  58.0870  58.1932
    58.8437  58.9635  59.6378  59.6659  59.6983  60.8284  61.0114  61.1601
    62.1164  62.2780  62.8706  63.6745  64.1431  64.3156  64.4397  64.6520
    65.1306  65.3052  65.6852  65.8050  66.3185  66.3388  66.3569  66.5253
    66.6560  66.9045  67.3986  67.4940  67.6549  67.7593  68.1751  68.2500
    68.4178  68.7895  68.9610  69.1681  70.1299  70.4931  70.5280  71.5625
    71.9371  71.9717  71.9916  72.5891  73.1912  73.5432  73.7991  74.7294
    74.8710  75.0567  75.2592  75.2663  75.6296  75.8634  76.1754  76.4972
[...]
   112.6049 112.7790 113.0670 113.1368

          k = 0.0556 0.5774 0.0000 (  8520 PWs)   bands (ev):

   -18.3016 -17.2911 -10.7342  -6.3397  -2.3458   3.8159   7.0495   7.2292
     7.8455   8.0707   9.0159   9.0454   9.2144   9.4398  10.8333  10.8924
    11.0436  11.7071  13.3373  13.3390  13.4548  14.8047  15.6048  16.1213
    16.5687  16.6722  18.2745  18.6879  18.7153  19.8827  20.5890  20.9917
    21.4302  22.2242  22.7646  23.0519  23.3178  23.4599  24.6794  24.7475
    25.7139  25.9633  26.3038  26.5135  27.5173  27.6038  28.3744  28.5367
    28.6556  29.2823  29.9835  30.3628  30.6884  30.9314  31.4971  31.5056
    32.3852  32.9475  33.6618  34.5436  34.5894  34.9544  36.3391  36.3765
    36.9967  37.5598  37.8820  38.8314  39.2722  40.2462  40.7275  41.8287
    43.7881  43.9057  44.1857  44.2050  44.3785  44.9177  45.5848  45.9643
    46.6867  49.0573  49.6745  50.0928  50.1202  50.1753  51.6142  51.8221
    52.0050  52.4864  52.8878  53.1205  54.0204  54.0719  55.3505  55.4148
    55.7569  55.8003  55.9207  56.1102  56.5498  56.6109  56.8596  57.1464
    57.7316  58.1696  58.3073  58.5519  59.2327  59.3240  59.4049  59.8156
    60.0338  60.3259  60.6793  60.8278  60.8601  60.8838  61.1979  61.4728
    61.7560  62.0386  62.0386  62.4196  62.5130  62.7612  62.8897  63.3812
    63.7968  63.8981  64.2843  64.3404  64.4195  64.8992  65.5504  65.9197
    65.9255  66.3592  66.6037  66.9671  67.0960  67.5177  67.5612  67.8967
    68.2872  68.8570  68.9943  69.2781  69.5080  69.6058  69.8535  70.4332
    70.6970  71.2724  71.5144  71.7674  71.9756  72.0113  72.3356  72.9211
    73.0711  73.3903  73.4022  73.9310  74.0543  74.7436  74.7553  74.8683
    75.2168  75.4503  75.5260  75.8989  76.1112  76.5894  76.8254  77.0144
    77.0788  77.2609  77.4130  77.4561  77.8852  77.9977  78.1507  78.2649
    78.8052  78.8560  78.9109  79.7009  79.8276  80.0559  80.1567  80.4660
    81.4757  81.6695  81.8100  82.1571  82.2879  82.5205  82.8757  82.9839
    83.0217  83.2105  83.4581  83.5218  83.8176  84.0387  85.1740  85.6892
    85.9229  86.7042  86.9596  87.0200  87.5506  87.9426  89.1144  89.1790
    89.1877  89.4518  89.5305  90.0012  90.3033  90.4220  90.5241  90.5582
    90.9977  91.1209  91.2354  91.6536  91.9096  92.2802  92.5850  92.9213
    94.0953  95.1585  95.3932  95.7600  95.8201  96.4180  96.4242  96.7624
    96.8129  97.4754  97.9218  98.0907  98.1361  98.5896  98.9370  98.9378
   100.1376 100.5741 101.3629 101.3962 102.1018 102.2014 102.2537 102.2623
   102.4904 102.5542 102.7825 102.8254 102.8760 102.8853 103.3587 103.5608
   103.5833 103.7282 103.9621 104.1270 104.2964 104.4738 104.6917 104.8745
   105.0111 105.7383 106.1975 106.3587 106.7008 106.8293 106.8417 107.2989
   107.3294 107.5189 108.9024 109.0327 109.1830 109.2217 109.7164 109.8448
   110.0465 110.2032 110.3103 110.4442 111.0705 111.1123 111.5872 112.1791
   112.5564 112.5863 113.0388 113.3239

          k = 0.0444 0.5774 0.0000 (  8502 PWs)   bands (ev):

   -18.3185 -17.3079 -10.6485  -6.3639  -2.3394   3.6993   7.0261   7.2043
     7.8431   8.0435   8.9896   9.0186   9.2040   9.4125  10.8103  10.8671
    11.0613  11.6799  13.3274  13.3920  13.4321  14.7778  15.7051  16.2112
    16.5536  16.5721  18.1445  18.6587  18.6615  19.9043  20.4492  21.4088
    21.4689  22.6996  22.9928  23.2921  23.3982  23.8789  24.8118  25.1012
    25.6898  25.9088  26.3719  26.5833  27.1376  27.6501  28.0598  28.2656
    28.6318  29.2828  29.5691  30.4219  30.8768  30.9061  31.0630  31.5451
    32.1318  33.1822  33.3163  34.2515  34.5719  35.4039  35.8474  36.2921
    36.9706  37.4994  37.9406  38.6880  39.5538  39.9060  40.7466  41.7725
    43.7592  43.7615  43.9531  44.2745  44.3900  45.0669  45.7507  46.0359
    46.8362  48.8985  49.1578  50.1859  50.4554  50.5243  51.6211  51.9201
    51.9932  52.1572  52.5177  53.1317  54.2277  54.5378  55.2965  55.7177
    55.8391  55.9209  56.1602  56.4800  56.8892  57.0696  57.2096  57.5978
    58.1846  58.4159  58.4537  58.9439  58.9764  59.6820  59.7966  59.8483
    59.9522  60.3386  60.3648  60.3747  60.4199  60.9314  61.1223  61.2550
    61.4231  61.5959  61.8345  62.2394  62.2962  62.7513  62.9154  62.9499
    63.4508  63.9484  64.0884  64.2023  64.7806  64.7852  65.3549  65.9875
    66.0875  66.0914  66.5604  66.9378  67.3459  67.4197  67.8364  67.9427
    68.3851  68.6184  68.7329  69.0997  69.3733  69.4609  69.4684  70.2103
    70.3543  71.3794  71.7329  71.8341  71.9226  72.0022  72.2354  72.7819
    73.0847  73.2895  73.6843  73.7746  74.0125  74.7256  74.7512  75.1908
    75.3008  75.4107  75.4200  75.8445  76.0850  76.4839  76.6058  76.9537
    76.9775  77.3596  77.5153  77.6568  77.6887  77.8971  77.9540  78.2873
    78.7136  78.8154  78.9472  79.5421  79.6861  79.9668  80.0083  80.2301
    81.4057  81.4791  81.7678  81.9969  82.0404  82.2873  82.9628  82.9754
    83.1835  83.2777  83.3562  83.4179  84.3266  84.5177  85.3849  85.6689
    85.8986  86.6683  86.8755  86.8994  87.2119  87.6409  88.6433  88.7452
    88.9608  88.9893  89.2388  89.9548  90.5026  90.5430  90.6341  90.7980
    91.0947  91.1176  91.3412  91.7391  92.1450  92.3996  93.3076  93.3832
    94.4219  94.7401  95.1476  95.4031  95.4646  96.2708  96.3889  96.6407
    97.4465  97.5719  97.8403  98.2713  98.4400  98.5614  98.9611  99.3298
   100.0206 101.3497 101.3660 102.0372 102.0560 102.1295 102.3061 102.3470
   102.6207 102.6725 103.1570 103.3165 103.5259 103.5355 103.5615 103.7096
   103.9906 104.1323 104.1578 104.4055 104.6097 104.8154 105.0322 105.7498
   105.8982 106.1983 106.5167 106.5604 107.2102 107.3953 107.4115 107.5139
   108.2184 108.2290 108.5369 109.0932 109.2454 109.7430 109.8095 110.0760
   110.2174 110.3737 110.5799 110.7811 110.8571 110.9347 111.5387 112.0353
   112.1119 112.2535 112.2606 112.3958

          k = 0.0333 0.5774 0.0000 (  8506 PWs)   bands (ev):

   -18.3316 -17.3210 -10.5808  -6.3827  -2.3347   3.6074   7.0078   7.1849
     7.8403   8.0222   8.9692   8.9977   9.1956   9.3912  10.7923  10.8473
    11.0748  11.6588  13.3192  13.4145  13.4374  14.7569  15.8069  16.3081
    16.4716  16.5417  18.0097  18.6139  18.6409  19.9177  20.3386  21.3921
    21.9465  23.0678  23.1657  23.2721  23.8810  24.2162  24.9767  25.1596
    25.6711  25.8557  26.4741  26.6289  26.9422  27.2011  27.8420  28.3421
    28.6133  29.1317  29.3240  30.4882  30.7957  30.8863  31.0108  31.4245
    32.1156  33.0836  33.1247  34.2268  34.5581  35.3153  35.8866  36.2614
    36.9504  37.4582  37.6682  38.9054  39.0895  40.3275  40.7604  41.6089
    43.4774  43.6126  43.7367  44.3396  44.4825  45.5211  45.8901  46.0914
    46.8698  48.6310  48.8242  50.3011  50.6874  50.9020  51.6276  51.8444
    51.9980  52.1267  52.1614  53.1038  54.3810  54.7916  54.9990  55.4120
    56.3268  56.3960  56.5608  56.9929  57.2372  57.4928  57.5842  58.0684
    58.1850  58.5209  58.7048  59.1051  59.1882  59.6573  59.8052  59.8980
    59.9549  60.1076  60.2431  60.2454  60.2714  60.5802  60.9074  61.0111
    61.0677  61.5527  61.7982  61.8372  62.1270  62.3963  63.0132  63.0417
    63.1760  63.5969  63.7364  64.5612  64.9101  64.9514  65.1729  65.6824
    66.0412  66.3760  66.6513  66.9090  67.2995  67.4193  67.8601  67.9222
    68.5535  68.6799  68.7444  68.9799  69.1575  69.2460  69.3427  70.0810
    70.0846  70.9306  71.2240  71.8533  71.9160  72.2317  72.4304  72.9405
    73.0752  73.3607  73.8324  73.9543  74.0891  74.6980  74.8055  75.1362
    75.1733  75.3778  75.6827  75.7286  76.0623  76.1872  76.4825  76.5536
    77.0351  77.2941  77.3232  77.3901  77.8572  78.1761  78.3308  78.3420
    78.6352  78.9086  79.0400  79.1385  79.7264  79.8460  79.9711  80.1301
    81.1142  81.1918  81.5706  81.5986  81.9136  81.9765  82.9018  83.0134
    83.2934  83.2971  83.6664  83.7499  84.8420  85.0151  85.6455  85.6642
    85.8795  86.6377  86.6785  86.7390  86.8569  87.3273  88.0981  88.2782
    88.5444  88.8013  89.0974  89.9001  90.6145  90.6187  90.7138  90.9149
    91.1096  91.3362  91.6384  91.8663  92.4577  92.5594  93.6421  93.9157
    94.5651  94.6143  94.8330  95.0938  95.1442  96.1504  96.3750  96.5392
    97.3110  97.3631  98.0336  98.4957  98.6809  98.9483  99.4144  99.7375
    99.9133 101.3787 101.6769 101.7018 101.9009 101.9772 102.4567 102.4678
   102.6795 102.7902 103.2310 103.3295 103.4258 103.6812 103.8076 104.3779
   104.5142 104.8297 105.0332 105.1137 105.2055 105.3202 105.6566 106.0758
   106.4917 106.7118 107.1210 107.2035 107.5526 107.6679 108.2937 108.3035
   108.3097 108.5718 108.7502 109.5470 109.5578 109.7113 109.7581 109.7735
   109.9562 110.2343 110.2349 110.6798 111.1859 111.2482 111.4233 111.4833
   111.5206 111.7022 111.7248 111.8285

          k = 0.0222 0.5774 0.0000 (  8516 PWs)   bands (ev):

   -18.3410 -17.3304 -10.5319  -6.3961  -2.3315   3.5411   6.9947   7.1710
     7.8379   8.0071   8.9545   8.9828   9.1895   9.3760  10.7794  10.8333
    11.0843  11.6437  13.3131  13.4018  13.4720  14.7419  15.9077  16.3724
    16.4005  16.5329  17.8860  18.5814  18.6262  19.9259  20.2598  21.3802
    22.4108  23.1113  23.2579  23.5906  24.3260  24.4433  24.8401  25.2993
    25.6578  26.0213  26.2178  26.5445  26.8266  27.0856  27.5916  28.3492
    28.6000  29.0513  29.2206  30.2862  30.8537  30.8723  31.0228  31.3776
    32.1597  32.7915  33.0923  34.4402  34.5482  34.7969  36.2389  36.3784
    36.9359  37.3332  37.4290  38.5631  39.2171  40.7697  40.8290  41.3779
    42.9582  43.5181  43.7206  44.3128  44.7107  45.9957  46.0145  46.1310
    46.7902  48.1051  48.8501  50.4351  50.8466  51.2146  51.5617  51.6329
    51.8438  52.0320  52.4461  53.0389  54.2819  54.4847  55.0607  55.5672
    56.7976  56.8544  56.9509  57.4609  57.5589  57.7823  57.8249  57.9520
    58.5440  58.6939  59.0839  59.1387  59.2141  59.3093  59.4332  59.8136
    59.8508  59.9573  60.1207  60.4285  60.5047  60.5347  60.5996  60.7530
    60.8736  61.3612  61.4010  61.8442  62.1106  62.1886  62.7599  62.9265
    62.9343  63.7992  63.8150  64.2019  64.9291  65.0705  65.2731  65.7712
    65.9307  66.4718  66.7163  66.8927  67.3669  67.4328  67.4565  68.0929
    68.3310  68.8687  68.8820  68.8870  69.1532  69.1742  69.5498  69.9122
    70.0517  70.4599  70.7152  71.4338  71.5690  72.6672  72.8187  72.8742
    73.3520  73.5949  73.9194  74.1826  74.2804  74.6384  74.8046  74.9098
    75.1681  75.3532  75.3892  75.8118  76.0458  76.0983  76.1789  76.4424
    77.0847  77.0943  77.1065  77.3101  77.9792  78.3725  78.3871  78.6599
    78.7777  78.8242  79.1135  79.1544  79.7757  79.8590  79.9432  80.1030
    80.6778  80.8090  81.1474  81.2450  81.8280  81.8630  82.8131  82.9884
    83.2693  83.5922  84.0182  84.1296  85.3582  85.5093  85.6829  85.8668
    85.9318  86.4160  86.5048  86.5202  86.6074  87.1105  87.5529  87.7793
    88.1405  88.7058  89.0284  89.8614  90.6543  90.6600  90.7596  90.9446
    91.1013  91.6874  91.9776  92.0380  92.7969  92.8117  93.6382  93.7799
    94.3288  94.6410  94.6935  95.1551  95.3911  96.0913  96.3938  96.4831
    96.9221  97.1302  97.7699  98.4092  99.3234  99.6506  99.8619  99.9534
   100.1492 101.4219 101.4326 101.5620 101.6499 101.9825 102.0951 102.1901
   102.6791 103.0615 103.0755 103.0826 103.4689 104.0284 104.1388 104.4962
   105.2271 105.4406 105.5337 105.7843 106.0663 106.1093 106.6790 106.8128
   107.1475 107.3803 107.4267 107.7432 107.7451 107.9612 108.3845 108.4775
   108.6134 109.0219 109.2610 109.4607 109.4878 109.6367 109.7894 109.7942
   109.9756 110.1466 110.3276 110.3723 110.4455 110.5296 110.6361 110.9732
   111.0644 111.3222 111.3624 111.5588

          k = 0.0111 0.5774 0.0000 (  8516 PWs)   bands (ev):

   -18.3466 -17.3361 -10.5022  -6.4042  -2.3296   3.5010   6.9869   7.1626
     7.8362   7.9980   8.9458   8.9739   9.1858   9.3668  10.7717  10.8248
    11.0899  11.6346  13.3093  13.3942  13.4936  14.7330  16.0006  16.2808
    16.4705  16.5277  17.7955  18.5617  18.6174  19.9304  20.2128  21.3730
    22.8226  23.1350  23.2493  23.8934  24.2642  24.6821  25.0201  25.5191
    25.6498  25.7362  26.0556  26.5384  26.7193  26.9342  27.8639  27.9515
    28.5920  28.9779  29.3790  30.1499  30.5123  30.8638  31.3846  31.4537
    32.0964  32.3875  33.3697  34.2993  34.5422  34.6616  36.2217  36.8667
    36.9272  37.0719  37.4025  38.0625  39.4862  40.7750  41.1550  41.3349
    42.4394  43.4690  43.7109  44.2988  44.8983  46.0617  46.1548  46.5160
    46.6720  47.5866  48.9151  50.5695  50.9490  51.3349  51.4152  51.6069
    51.6363  52.0999  52.8455  52.9534  53.7822  54.5442  54.8955  56.0265
    57.2040  57.2065  57.2281  57.2933  57.8659  58.0241  58.0894  58.2194
    58.7221  58.7531  58.8854  59.0189  59.1254  59.1422  59.5339  59.6821
    59.8978  59.9410  60.0111  60.0990  60.1798  60.5531  60.7092  60.9536
    60.9558  61.2166  61.4258  61.4267  61.8492  62.2841  62.4556  62.5828
    63.2802  63.6896  64.0091  64.1989  64.4764  65.2460  65.4257  65.7543
    66.1485  66.4082  66.7271  66.8851  67.2820  67.4383  67.5937  67.6852
    68.3579  68.6258  68.9646  69.1209  69.1794  69.4471  69.7567  69.9856
    70.0279  70.1557  70.2962  70.9458  71.1831  72.7665  73.0675  73.2589
    73.4704  73.7320  74.1215  74.3419  74.3499  74.5611  74.7080  74.8514
    75.1956  75.2881  75.3374  75.4441  75.7702  76.0359  76.1332  76.7404
    76.7926  77.0066  77.1536  77.3347  78.0395  78.2870  78.3749  78.4093
    79.0881  79.2299  79.2456  79.4203  79.7490  79.9266  80.1146  80.1454
    80.2367  80.3539  80.7203  80.8585  81.7725  81.8409  82.7705  82.9846
    83.2501  83.8135  84.3198  84.4372  85.7095  85.8626  85.8770  85.9328
    86.1640  86.2031  86.2624  86.3057  86.5649  86.9850  87.0145  87.3148
    87.8254  88.6573  88.9939  89.8392  90.6726  90.6741  90.7817  90.9511
    91.0956  92.0419  92.0650  92.4341  93.1180  93.1607  93.2299  93.5917
    93.9128  94.3156  94.7144  95.7362  95.7899  96.0717  96.4546  96.5068
    96.6071  96.7495  97.6782  98.0269  99.6208 100.1359 100.2326 100.5296
   100.5526 101.2935 101.3212 101.4127 101.5772 101.7132 101.8220 101.9921
   102.6491 102.9393 102.9448 103.0369 103.2391 103.5046 104.7932 105.2043
   105.5727 105.8503 106.4899 106.7262 106.8260 106.8401 107.1118 107.3594
   107.3833 107.5640 107.7526 108.0978 108.1855 108.2298 108.2453 108.7944
   108.8236 108.9247 109.0368 109.2192 109.3958 109.6032 109.6853 109.6954
   109.7124 109.7370 109.9469 110.3500 110.3580 110.4481 110.5488 110.5732
   110.7213 110.8698 111.1990 111.2500

          k = 0.0000 0.5774 0.0000 (  8514 PWs)   bands (ev):

   -18.3485 -17.3379 -10.4923  -6.4069  -2.3289   3.4876   6.9843   7.1599
     7.8357   7.9950   8.9428   8.9709   9.1845   9.3638  10.7691  10.8220
    11.0918  11.6316  13.3080  13.3917  13.5009  14.7300  16.0510  16.2309
    16.4973  16.5259  17.7616  18.5551  18.6144  19.9318  20.1972  21.3706
    23.0299  23.1389  23.2465  23.9937  24.0862  24.9907  25.1272  25.4316
    25.6243  25.6471  26.0899  26.3546  26.6057  27.1559  27.6648  28.0657
    28.5894  28.8047  29.5952  30.1117  30.2996  30.8610  31.4955  31.6409
    32.0493  32.1176  33.6856  33.9271  34.5402  34.7545  36.2139  36.9243
    36.9706  37.2367  37.3215  37.7607  39.6009  40.7767  41.0546  41.7211
    42.0487  43.4540  43.7077  44.2943  44.9742  46.0842  46.1627  46.6156
    46.9201  47.1770  48.9469  50.6385  50.9914  51.2346  51.4802  51.5111
    51.6375  52.1447  52.9071  53.2598  53.3372  54.5636  54.8342  56.3240
    56.9129  57.3789  57.3925  57.4573  58.1156  58.1677  58.2655  58.3357
    58.5511  58.5582  58.6757  58.8626  59.4680  59.4737  59.5036  59.5505
    59.5744  59.7261  60.0575  60.1050  60.2047  60.6283  60.7162  60.8237
    60.8973  61.2023  61.5806  61.6246  61.7931  61.9171  62.0603  62.9631
    63.3019  63.5408  64.0946  64.1983  64.4144  65.2226  65.3600  65.9666
    66.1203  66.4258  66.7375  66.8828  67.2602  67.3605  67.4647  67.9758
    68.0691  68.4967  69.1758  69.2662  69.3136  69.5511  69.5611  69.7732
    70.1362  70.2564  70.3990  70.5699  70.9291  72.7528  73.2767  73.4396
    73.5213  73.7128  74.1535  74.3349  74.3356  74.6986  74.7394  74.7593
    75.2124  75.3114  75.3319  75.3333  75.4510  76.0326  76.1926  76.6314
    76.8882  76.9872  77.1692  77.3852  78.0569  78.0790  78.3685  78.4153
    79.2338  79.2527  79.5191  79.7370  79.8081  79.8774  79.9215  80.0064
    80.2514  80.4382  80.4530  80.4930  81.7580  81.8344  82.7588  82.9840
    83.2434  83.8975  84.4489  84.5670  85.7562  85.8658  86.0062  86.0420
    86.0462  86.3551  86.4068  86.4251  86.5142  86.5640  86.8448  87.1112
    87.6958  88.6425  88.9832  89.8320  90.6753  90.6801  90.7882  90.9521
    91.0935  92.0619  92.2907  92.6518  92.9921  93.3544  93.4131  93.4804
    93.5177  94.1121  94.7912  95.9363  96.0731  96.0922  96.4459  96.4467
    96.4729  96.6788  97.6581  97.7436  99.7439 100.2397 100.3976 100.8800
   101.0074 101.0566 101.2686 101.3074 101.3590 101.5921 101.9948 102.1064
   102.3613 102.6383 102.9109 103.0092 103.0318 103.5132 105.2810 105.5084
   105.7329 106.0083 106.5386 106.9462 107.1177 107.2488 107.3186 107.6734
   107.7852 107.9323 107.9437 108.1419 108.1875 108.1997 108.3616 108.4254
   108.5808 108.9483 109.0430 109.1348 109.3017 109.3217 109.3317 109.7848
   109.8328 109.9081 109.9814 110.1056 110.1327 110.2191 110.2586 110.3544
   110.7842 110.8235 111.4364 111.4784

     the Fermi energy is    -4.0256 ev

!    total energy              =     -24.04188009 Ry
     estimated scf accuracy    <          3.7E-10 Ry
     smearing contrib. (-TS)   =      -0.00000108 Ry
     internal energy E=F+TS    =     -24.04187902 Ry

     The total energy is F=E-TS. E is the sum of the following terms:
     one-electron contribution =    -359.37516005 Ry
     hartree contribution      =     180.53682955 Ry
     xc contribution           =      -8.59991212 Ry
     ewald contribution        =     163.39636361 Ry

     convergence has been achieved in   7 iterations

     Writing all to output data dir ./outdir/graphene.save/

     init_run     :    265.18s CPU     51.63s WALL (       1 calls)
     electrons    :   5948.08s CPU    990.04s WALL (       1 calls)

     Called by init_run:
     wfcinit      :    261.73s CPU     50.33s WALL (       1 calls)
     potinit      :      1.49s CPU      0.43s WALL (       1 calls)
     hinit0       :      1.86s CPU      0.75s WALL (       1 calls)

     Called by electrons:
     c_bands      :   5315.19s CPU    882.04s WALL (       7 calls)
     sum_band     :    628.87s CPU    107.29s WALL (       7 calls)
     v_of_rho     :      3.63s CPU      0.63s WALL (       8 calls)
     mix_rho      :      0.38s CPU      0.07s WALL (       7 calls)

     Called by c_bands:
     init_us_2    :      4.46s CPU      0.86s WALL (     915 calls)
     init_us_2:cp :      4.45s CPU      0.86s WALL (     915 calls)
     cegterg      :   5297.97s CPU    877.45s WALL (     427 calls)

     Called by *egterg:
     cdiaghg      :    620.98s CPU    147.56s WALL (    1772 calls)
     h_psi        :   3772.33s CPU    595.93s WALL (    1833 calls)
     g_psi        :     12.97s CPU      2.03s WALL (    1345 calls)

     Called by h_psi:
     h_psi:calbec :     41.85s CPU      3.97s WALL (    1833 calls)
     vloc_psi     :   3650.21s CPU    582.55s WALL (    1833 calls)
     add_vuspsi   :     40.95s CPU      3.85s WALL (    1833 calls)

     General routines
     calbec       :     41.82s CPU      3.97s WALL (    1833 calls)
     fft          :      2.61s CPU      0.78s WALL (      94 calls)
     ffts         :      0.85s CPU      0.32s WALL (      15 calls)
     fftw         :   4111.69s CPU    663.23s WALL (  781070 calls)
     interpolate  :      1.02s CPU      0.35s WALL (       8 calls)

     Parallel routines

     PWSCF        :      1h43m CPU  17m23.53s WALL


   This run was terminated on:  11:28:33  25Aug2022            

=------------------------------------------------------------------------------=
   JOB DONE.
=------------------------------------------------------------------------------=
