
     Program PWSCF v.7.0 starts on 25Aug2022 at 11: 5:43 
        Git branch: HEAD
        Last git commit: bcbb9787c58f17a467653707917172ffc4053dd9-dirty
        Last git commit date: Tue Dec 21 10:27:04 2021 +0000
        Last git commit subject: Merge branch pw2gt_cmplx into develop         

     This program is part of the open-source Quantum ESPRESSO suite
     for quantum simulation of materials; please cite
         "P. Giannozzi et al., J. Phys.:Condens. Matter 21 395502 (2009);
         "P. Giannozzi et al., J. Phys.:Condens. Matter 29 465901 (2017);
         "P. Giannozzi et al., J. Chem. Phys. 152 154105 (2020);
          URL http://www.quantum-espresso.org", 
     in publications or presentations arising from this work. More details at
     http://www.quantum-espresso.org/quote

     Parallel version (MPI & OpenMP), running on       6 processor cores
     Number of MPI processes:                 1
     Threads/MPI process:                     6

     MPI processes distributed on     1 nodes
     23789 MiB available memory on the printing compute node when the environment starts

     Reading input from scf.in

     Current dimensions of program PWSCF are:
     Max number of different atomic species (ntypx) = 10
     Max number of k-points (npk) =  40000
     Max angular momentum in pseudopotentials (lmaxx) =  4

     Subspace diagonalization in iterative solution of the eigenvalue problem:
     a serial algorithm will be used


     G-vector sticks info
     --------------------
     sticks:   dense  smooth     PW     G-vecs:    dense   smooth      PW
     Sum        1189     475    151               270173    68333   11465

     Using Slab Decomposition



     bravais-lattice index     =            4
     lattice parameter (alat)  =       4.6487  a.u.
     unit-cell volume          =     707.3387 (a.u.)^3
     number of atoms/cell      =            2
     number of atomic types    =            1
     number of electrons       =         8.00
     number of Kohn-Sham states=          300
     kinetic-energy cutoff     =      80.0000  Ry
     charge density cutoff     =     800.0000  Ry
     scf convergence threshold =      1.0E-08
     mixing beta               =       0.3000
     number of iterations used =            8  plain     mixing
     Exchange-correlation= PBE
                           (   1   4   3   4   0   0   0)

     celldm(1)=   4.648726  celldm(2)=   0.000000  celldm(3)=   8.130081
     celldm(4)=   0.000000  celldm(5)=   0.000000  celldm(6)=   0.000000

     crystal axes: (cart. coord. in units of alat)
               a(1) = (   1.000000   0.000000   0.000000 )  
               a(2) = (  -0.500000   0.866025   0.000000 )  
               a(3) = (   0.000000   0.000000   8.130081 )  

     reciprocal axes: (cart. coord. in units 2 pi/alat)
               b(1) = (  1.000000  0.577350 -0.000000 )  
               b(2) = (  0.000000  1.154701  0.000000 )  
               b(3) = (  0.000000 -0.000000  0.123000 )  


     PseudoPot. # 1 for C  read from file:
     ../../pseudos/ONCVPSP/abinit/C_ONCV_PBE_sr.upf
     MD5 check sum: be7deea5c8a9eeec940f0cd39a542f08
     Pseudo is Norm-conserving + core correction, Zval =  4.0
     Generated using ONCVPSP code by D. R. Hamann
     Using radial grid of 1248 points,  4 beta functions with: 
                l(1) =   0
                l(2) =   0
                l(3) =   1
                l(4) =   1

     atomic species   valence    mass     pseudopotential
        C              4.00    12.01070     C ( 1.00)

     24 Sym. Ops., with inversion, found



   Cartesian axes

     site n.     atom                  positions (alat units)
         1           C   tau(   1) = (  -0.0000000   0.5773503   0.0000000  )
         2           C   tau(   2) = (   0.5000000   0.2886751   0.0000000  )

     number of k points=    19  Marzari-Vanderbilt smearing, width (Ry)=  0.0001
                       cart. coord. in units 2pi/alat
        k(    1) = (   0.0000000   0.0000000   0.0000000), wk =   0.0138889
        k(    2) = (   0.0000000   0.0962250   0.0000000), wk =   0.0833333
        k(    3) = (   0.0000000   0.1924501   0.0000000), wk =   0.0833333
        k(    4) = (   0.0000000   0.2886751   0.0000000), wk =   0.0833333
        k(    5) = (   0.0000000   0.3849002   0.0000000), wk =   0.0833333
        k(    6) = (   0.0000000   0.4811252   0.0000000), wk =   0.0833333
        k(    7) = (   0.0000000  -0.5773503   0.0000000), wk =   0.0416667
        k(    8) = (   0.0833333   0.1443376   0.0000000), wk =   0.0833333
        k(    9) = (   0.0833333   0.2405626   0.0000000), wk =   0.1666667
        k(   10) = (   0.0833333   0.3367877   0.0000000), wk =   0.1666667
        k(   11) = (   0.0833333   0.4330127   0.0000000), wk =   0.1666667
        k(   12) = (   0.0833333   0.5292377   0.0000000), wk =   0.1666667
        k(   13) = (   0.1666667   0.2886751   0.0000000), wk =   0.0833333
        k(   14) = (   0.1666667   0.3849002   0.0000000), wk =   0.1666667
        k(   15) = (   0.1666667   0.4811252   0.0000000), wk =   0.1666667
        k(   16) = (   0.1666667   0.5773503   0.0000000), wk =   0.0833333
        k(   17) = (   0.2500000   0.4330127   0.0000000), wk =   0.0833333
        k(   18) = (   0.2500000   0.5292377   0.0000000), wk =   0.1666667
        k(   19) = (   0.3333333   0.5773503   0.0000000), wk =   0.0277778

     Dense  grid:   270173 G-vectors     FFT dimensions: (  45,  45, 360)

     Smooth grid:    68333 G-vectors     FFT dimensions: (  27,  27, 216)

     Estimated max dynamical RAM per process >       1.09 GB
 ----2D----2D----2D----2D----2D----2D----2D----2D----2D----2D----2D----2D
  The code is running with the 2D cutoff
  Please refer to:
  Sohier, T., Calandra, M., & Mauri, F. (2017), 
  Density functional perturbation theory for gated two-dimensional heterostructures:
  Theoretical developments and application to flexural phonons in graphene.
  Physical Review B, 96(7), 75448. https://doi.org/10.1103/PhysRevB.96.075448
 ----2D----2D----2D----2D----2D----2D----2D----2D----2D----2D----2D----2D

     Initial potential from superposition of free atoms

     starting charge       7.9999, renormalised to       8.0000

     negative rho (up, down):  3.544E-07 0.000E+00
     Starting wfcs are    8 randomized atomic wfcs +  292 random wfcs

     total cpu time spent up to now is       17.0 secs

     per-process dynamical memory:   943.4 Mb

     Self-consistent Calculation

     iteration #  1     ecut=    80.00 Ry     beta= 0.30
     Davidson diagonalization with overlap
     ethr =  1.00E-02,  avg # of iterations =  6.9

     negative rho (up, down):  2.249E-07 0.000E+00

     total cpu time spent up to now is      101.9 secs

     total energy              =     -24.11682455 Ry
     estimated scf accuracy    <       0.20475446 Ry

     iteration #  2     ecut=    80.00 Ry     beta= 0.30
     Davidson diagonalization with overlap
     ethr =  2.56E-03,  avg # of iterations =  1.1

     negative rho (up, down):  7.896E-06 0.000E+00

     total cpu time spent up to now is      136.5 secs

     total energy              =     -24.08496508 Ry
     estimated scf accuracy    <       0.06669229 Ry

     iteration #  3     ecut=    80.00 Ry     beta= 0.30
     Davidson diagonalization with overlap
     ethr =  8.34E-04,  avg # of iterations =  2.3

     negative rho (up, down):  9.649E-06 0.000E+00

     total cpu time spent up to now is      174.5 secs

     total energy              =     -24.09504710 Ry
     estimated scf accuracy    <       0.00117785 Ry

     iteration #  4     ecut=    80.00 Ry     beta= 0.30
     Davidson diagonalization with overlap
     ethr =  1.47E-05,  avg # of iterations =  5.3

     negative rho (up, down):  7.211E-06 0.000E+00

     total cpu time spent up to now is      215.7 secs

     total energy              =     -24.09505422 Ry
     estimated scf accuracy    <       0.00020350 Ry

     iteration #  5     ecut=    80.00 Ry     beta= 0.30
     Davidson diagonalization with overlap
     ethr =  2.54E-06,  avg # of iterations =  4.2

     negative rho (up, down):  5.033E-06 0.000E+00

     total cpu time spent up to now is      254.9 secs

     total energy              =     -24.09508617 Ry
     estimated scf accuracy    <       0.00000051 Ry

     iteration #  6     ecut=    80.00 Ry     beta= 0.30
     Davidson diagonalization with overlap
     ethr =  6.33E-09,  avg # of iterations =  1.6

     negative rho (up, down):  3.401E-06 0.000E+00

     total cpu time spent up to now is      290.7 secs

     total energy              =     -24.09508630 Ry
     estimated scf accuracy    <       0.00000007 Ry

     iteration #  7     ecut=    80.00 Ry     beta= 0.30
     Davidson diagonalization with overlap
     ethr =  9.02E-10,  avg # of iterations =  1.2

     total cpu time spent up to now is      325.8 secs

     End of self-consistent calculation

          k = 0.0000 0.0000 0.0000 (  8603 PWs)   bands (ev):

   -23.8180 -11.8971  -7.2756  -7.2756  -0.9717  -0.1783   0.7502   1.1684
     2.6973   3.4797   4.2182   4.2182   5.3969   6.6098   7.2704   8.4684
     8.7488  10.5018  12.6767  15.1009  17.2407  18.4012  20.3076  22.5550
    24.2786  24.2786  25.5971  27.5627  27.5627  28.6821  29.2612  31.1280
    31.1280  31.6371  31.6371  32.1520  32.3594  32.7194  33.0335  33.1710
    33.1710  33.3534  33.3534  33.6924  33.6924  33.7521  33.7521  33.8942
    33.9880  33.9992  34.0896  34.5232  34.5232  34.7704  34.7704  35.2650
    35.4285  35.4285  35.5153  35.5153  35.6080  35.8532  36.1286  36.2049
    36.9523  36.9523  37.2696  37.2696  37.3568  38.0179  38.0179  38.0284
    38.0284  38.5670  38.9821  39.1210  40.0768  40.2378  40.2378  40.6295
    40.6295  41.0998  41.0998  41.3085  41.3085  41.9296  42.1958  42.3520
    42.9499  43.3725  44.3126  44.3126  44.4152  44.4152  44.7678  44.7678
    44.9456  45.1828  45.1828  45.8616  46.3549  47.5780  47.6818  47.6818
    48.6067  49.1460  49.1460  49.6472  49.6472  49.6715  49.6715  50.4232
    50.8706  51.2286  51.4523  51.4523  51.9082  52.9838  54.7378  54.7378
    54.8904  54.8904  54.9684  55.2690  55.2690  55.7211  56.3124  56.3482
    56.3482  58.9896  59.1397  60.9059  60.9059  60.9295  61.0765  61.0765
    61.6306  61.6306  61.8154  62.1846  62.2863  62.2863  62.5972  66.0484
    66.9528  67.5260  67.5260  68.1614  68.1614  68.6949  68.7244  68.7244
    69.1424  69.1424  69.1637  69.8734  69.8734  70.7550  71.1012  73.7082
    75.1301  75.4247  75.4247  75.7423  76.0027  76.0027  76.3165  76.5534
    76.5534  76.8161  76.8330  76.8330  79.8598  80.5329  82.1063  83.0603
    83.0603  83.8761  84.4471  84.5942  84.5942  84.6505  85.0345  85.0345
    85.3118  85.3118  86.9484  87.3668  88.4507  88.4507  90.1648  90.1648
    91.2387  92.4124  92.4124  93.0811  93.2730  93.6342  93.9549  93.9549
    94.1218  94.3995  94.3995  94.7749  94.7749  94.7754  94.7754  95.2909
    95.4856  96.6393  96.6393  98.3517  98.3517  98.3986  99.0678  99.0837
    99.4274  99.4274  99.5493  99.5493  99.6026  99.8161  99.8161 100.1357
   100.1357 100.1582 100.3649 100.4054 100.7641 100.7641 100.9255 100.9255
   101.0060 101.0734 101.2840 101.2840 102.0346 102.0346 102.0959 102.1237
   102.4590 103.0694 103.1290 103.1290 103.3882 103.3882 103.4881 103.4881
   103.4977 103.8758 104.0434 104.0434 104.2313 104.2313 104.6268 104.6538
   104.6538 104.7626 104.7626 104.7927 104.8072 104.8072 105.7153 105.8062
   105.8062 106.2804 106.4455 106.5003 106.5003 106.5414 106.7166 106.7166
   106.8525 108.0668 108.0668 108.1470 108.2435 108.2435 108.8227 109.7667
   109.9846 110.4723 110.4723 110.8183 110.8183 110.9882 111.4744 111.6239
   111.6239 111.9718 111.9718 112.0105 112.0825 112.8654 113.3733 114.8726
   114.8726 114.9094 114.9094 115.0051

          k = 0.0000 0.0962 0.0000 (  8645 PWs)   bands (ev):

   -23.6536 -11.6997  -7.9292  -7.6179  -0.7480   0.0483   0.9783   1.3954
     2.9214   3.7043   4.2868   4.9193   5.6273   6.7070   6.8308   8.7686
     8.9757  10.7135  12.9015  15.2880  17.4619  18.9159  20.3222  22.6348
    22.7756  22.9625  25.4625  26.7096  27.5968  28.0554  28.5321  28.8940
    28.9014  29.2385  29.3013  29.7728  30.4351  30.6854  30.7955  31.1976
    31.3972  31.5716  31.7850  32.1462  32.2625  32.9596  32.9606  33.3550
    34.0895  34.2762  34.4239  34.5764  34.9858  35.4689  35.5475  35.8107
    35.8959  36.1924  36.2606  36.3703  36.6873  36.9095  37.0244  37.3787
    37.5715  37.7959  37.9641  38.3865  38.7035  38.7754  38.8668  39.0075
    39.2654  39.6651  39.7520  40.1000  40.1902  40.3014  40.8586  41.1042
    41.1740  41.4982  41.9905  42.0349  42.4612  42.6613  43.0029  43.3874
    43.4490  43.6574  43.8970  43.9646  43.9649  44.1777  45.2924  45.5960
    46.1011  46.1094  46.4274  46.7909  47.1715  47.6064  47.6340  47.8478
    48.1205  49.1260  49.2429  49.6156  49.6599  50.4039  50.7665  51.4122
    51.7422  52.1543  52.1724  52.4978  52.6863  52.8960  53.4411  53.5500
    53.9667  54.7840  55.4830  55.9671  56.7215  57.2000  57.6602  57.9224
    58.1100  58.7401  58.8923  59.4345  59.4469  60.1074  60.7383  61.2521
    61.4896  62.4974  63.3649  63.7584  64.3072  64.3281  64.7910  64.9595
    65.6726  65.9462  66.3567  66.8765  67.0572  67.4992  68.6164  69.9073
    70.4610  70.7954  71.1584  71.2409  71.4109  71.6822  72.1559  73.1274
    73.6798  73.7650  73.9512  74.1094  74.4977  76.5783  78.3931  78.6199
    78.8259  79.1065  79.2465  79.4501  79.8630  80.7030  81.6536  81.8707
    82.2370  82.2490  82.5629  82.7696  83.0019  84.2647  84.2859  85.5461
    85.8995  86.2251  87.8121  88.1613  88.5324  88.6912  88.9428  89.3087
    90.1937  90.7397  90.8453  90.9358  91.3756  91.5178  91.5909  91.6794
    91.8896  92.0055  92.1690  92.3960  92.4115  92.7846  92.9272  93.4721
    93.7713  94.0108  94.7466  95.1144  95.3593  95.8775  96.5212  96.5891
    97.2649  97.3075  97.3607  97.5445  97.7218  98.1711  98.6579  98.6739
    98.7508  99.0564  99.6779  99.7691  99.8339  99.9296 100.1683 100.2436
   100.2883 100.4088 100.7315 100.8241 101.0066 101.2340 101.2714 101.5485
   101.8800 102.0481 102.2332 102.4224 102.5127 102.7825 103.4574 103.5641
   103.7148 103.8842 104.2764 104.7149 105.1275 105.9118 106.0910 106.3237
   106.6922 106.7836 106.9205 107.0936 107.2017 107.4458 107.4535 107.4697
   107.6606 107.8959 108.0739 108.1342 108.4449 108.5003 108.5825 108.9143
   108.9382 109.1532 109.2419 109.2773 109.4383 109.9198 110.3093 110.5364
   110.6252 110.6995 110.8414 111.4934 111.7270 111.9168 111.9857 111.9995
   112.4295 112.6926 112.7830 112.7916 112.9640 113.2424 113.2467 113.7923
   114.0633 114.0782 114.6412 115.1746

          k = 0.0000 0.1925 0.0000 (  8577 PWs)   bands (ev):

   -23.1618 -11.1127  -9.5749  -8.4193  -0.0768   0.7270   1.6625   2.0753
     3.5881   4.2527   4.3727   5.1994   6.3069   6.7758   7.4886   9.6343
     9.7473  11.3357  13.5702  15.7618  18.1073  18.9806  19.9428  21.1202
    21.5732  22.3733  23.2809  23.4521  23.8170  24.5436  25.7260  25.9854
    26.8648  27.3494  27.7722  27.8158  28.4350  28.6239  29.0653  29.1333
    29.3702  29.5642  29.9685  30.3498  30.4289  30.9080  31.3307  31.7265
    32.1396  32.3922  33.0007  33.4924  34.0736  34.0854  34.3996  35.4527
    35.8652  36.1410  36.3517  36.7308  37.3594  37.3800  37.6100  38.2762
    38.7491  39.6518  39.7151  39.7717  39.8576  39.9723  40.0176  40.4457
    40.4733  40.8843  40.9123  41.1080  41.5818  41.7706  42.2114  42.5728
    43.0572  43.4664  43.5363  44.0376  44.0604  44.5264  44.7928  44.8249
    45.2055  45.2646  45.3008  45.5219  46.1018  46.2637  46.2881  46.3954
    46.8318  46.8925  47.7166  48.5224  48.5834  48.6197  49.3682  49.8009
    50.3134  50.4630  50.7221  51.0677  51.0678  51.2321  51.6717  51.9928
    52.3205  52.4186  52.6698  53.0287  53.9873  54.5712  55.7844  56.0526
    56.2250  56.4914  56.5516  56.7980  57.2257  57.2938  57.6905  58.0206
    58.7054  60.1330  60.2833  61.4285  61.4331  61.6514  61.9408  62.1055
    62.6658  62.7296  63.1474  63.8403  64.3618  64.4477  65.2662  66.1599
    66.4262  67.0436  67.3025  67.7954  68.0176  68.2898  68.9989  71.1972
    71.3588  71.3740  71.6465  71.9269  72.5096  72.8207  73.3984  73.5878
    74.7498  74.8535  74.8596  74.8627  75.1042  75.8080  76.7010  77.6304
    78.6225  78.7350  79.4284  80.2914  80.3770  80.5309  80.6963  81.7372
    82.2160  82.7008  82.7394  82.7554  83.1299  83.6815  83.7539  83.7673
    83.8973  83.9802  84.2060  84.5314  84.5870  85.0315  85.2636  85.5596
    86.3688  86.7076  87.3343  87.5552  87.6977  88.6383  88.7163  88.8231
    88.8735  89.1715  89.5330  89.6114  90.1770  90.5381  90.7721  90.9594
    91.2975  91.4625  91.7448  92.1968  92.4813  92.6137  92.9890  93.5516
    94.2180  94.2711  94.8938  94.9221  95.2235  96.1677  96.2477  96.3258
    97.1508  98.1954  98.3298  98.4947  98.8792  99.3531  99.6117  99.7907
   100.0141 100.0142 100.1246 100.3915 100.5700 100.6792 100.8451 100.8759
   100.9728 101.0293 101.2994 101.7383 101.8006 102.1874 102.7010 103.0997
   103.1590 103.2971 104.1715 104.3589 104.8719 104.9536 105.0979 105.6279
   105.6297 105.8979 105.9737 106.1716 106.5626 106.7503 107.3471 107.4155
   107.7476 107.9473 108.0642 108.8060 108.9974 109.4908 109.5611 109.7796
   110.3172 110.3388 110.4548 110.9452 111.0159 111.3403 111.3597 111.4326
   111.4806 111.6254 111.8306 111.8685 112.0628 112.2900 112.3424 112.8128
   113.1135 113.2336 113.4676 114.1783 114.8826 115.0046 115.2172 115.5277
   115.5494 115.8477 116.2198 116.3016

          k = 0.0000 0.2887 0.0000 (  8555 PWs)   bands (ev):

   -22.3485 -11.6841 -10.1556  -9.3091   1.0396   1.8425   2.8008   3.0236
     3.2829   3.9490   4.7543   5.5008   7.4285   8.5710   9.3393  10.7506
    11.0973  12.3022  14.6699  15.6297  17.5339  17.7208  19.0290  19.1360
    19.3880  19.5936  20.2961  21.0494  22.1204  22.3614  23.3427  24.2427
    24.6826  25.2603  25.3413  26.3808  26.6562  27.0318  27.4898  27.5231
    27.7256  27.8804  28.3978  28.4104  29.2976  29.6150  29.7920  30.5720
    30.6845  30.8436  31.3667  31.8783  31.9433  32.5756  34.0887  34.1047
    34.9098  35.1007  35.6758  36.0272  36.1879  36.5037  37.2994  38.3479
    38.3668  38.4135  39.6375  39.7957  40.1020  40.1760  41.6070  41.6403
    42.6902  42.8383  43.1292  43.1540  43.6583  43.8282  43.8684  44.2092
    44.2791  44.3875  44.5237  45.0116  45.5802  45.7894  46.0808  46.2366
    46.3794  47.3567  47.4309  47.4506  48.1720  48.5221  48.6573  48.7778
    49.3746  49.6507  50.1685  50.7411  50.8079  51.6910  51.9879  52.0524
    52.2346  52.6714  52.7001  53.4520  53.9578  54.1815  54.4439  54.6168
    54.7612  54.9826  55.2572  55.2582  55.6653  55.7831  55.9419  56.0392
    57.2504  58.3725  58.9534  59.7113  59.7421  59.8200  60.1304  60.8148
    60.8817  61.1390  61.9648  62.2051  62.6344  62.7470  63.0081  63.1465
    63.4114  63.8990  64.8420  65.3599  65.5763  65.9340  66.0359  67.6632
    68.1728  68.5886  69.3599  69.5205  69.7418  70.2456  70.3459  70.5609
    70.6903  71.0869  71.7855  72.1152  72.5379  72.6070  73.1637  73.7725
    74.4808  75.0697  75.3860  76.3560  76.4941  76.6007  76.7556  77.0132
    77.3450  77.3582  77.5755  78.1063  78.3034  78.4659  78.5096  78.9096
    79.0314  79.1605  79.3057  79.3058  79.7407  79.9184  80.0094  80.5087
    80.6159  80.8778  80.9956  81.4750  82.1208  82.6218  83.7857  83.8473
    83.9112  84.5325  84.7123  85.2583  86.3495  86.5638  86.5897  86.9195
    87.2147  87.2306  87.7432  87.7882  87.8947  88.2702  88.2877  88.5175
    89.2979  89.3182  89.9535  91.0589  91.1988  92.5031  92.5490  92.9956
    93.4081  93.5038  93.5993  94.3124  94.7164  94.9644  95.0608  95.4056
    95.5732  95.8539  95.9062  96.4197  97.4054  97.4093  97.9741  98.1376
    98.2935  98.4698  98.6022  99.1329  99.7020 100.0756 100.2973 100.5034
   100.7378 101.4484 101.5401 101.5874 101.5915 102.1313 102.1720 102.3944
   102.4945 102.6092 102.8668 102.9348 103.5362 103.6619 103.9223 104.0104
   104.2914 104.3962 104.4876 104.5013 104.8715 104.9884 105.1104 105.3466
   105.4151 105.4559 106.0675 106.5324 106.5667 106.5719 107.0206 107.6814
   108.4860 108.5960 108.6865 108.7436 108.8278 108.9445 108.9548 109.7189
   109.8531 110.0570 110.3537 110.5085 111.4803 111.9337 112.0287 112.2106
   112.2132 112.2932 112.6274 112.7583 112.8689 112.9995 113.1139 113.3097
   113.6383 113.6895 113.8511 114.5355

          k = 0.0000 0.3849 0.0000 (  8530 PWs)   bands (ev):

   -21.2255 -13.8989 -10.0509  -8.8789   0.7265   2.5906   3.4546   3.6323
     4.4100   4.7993   6.3220   7.0493   8.9909  10.0267  11.6687  12.1815
    12.3155  12.9251  14.2131  14.6901  15.3576  15.7696  16.1922  16.6675
    17.6779  18.3256  18.4831  19.6945  20.0724  20.6466  21.8957  22.7832
    24.0659  24.0863  24.3752  24.9976  25.1970  25.8861  26.2085  26.3667
    26.3668  26.7577  27.0380  27.2555  27.7571  28.1304  28.7067  28.8276
    29.7105  29.7915  30.6899  31.2372  31.2795  32.0587  32.2821  32.5263
    33.0183  33.8206  34.5747  34.7083  36.3063  36.3924  37.0863  37.2460
    37.3488  38.3703  38.4748  38.8687  39.1108  40.7581  41.5649  41.6273
    42.1651  42.5737  42.6325  43.2523  43.5270  45.0631  46.4821  46.7004
    46.7533  47.4324  47.5729  47.9039  47.9654  48.0323  48.4011  48.5774
    48.6841  48.9061  49.3841  49.5702  50.1360  50.3576  50.5576  50.6833
    51.6959  51.8327  52.8134  52.8598  52.9683  53.8937  53.9365  53.9394
    54.5889  55.1899  55.5343  55.5883  55.8934  56.0535  56.9504  57.6983
    58.1847  58.2446  58.7704  59.1438  59.1863  59.1870  59.2471  59.9235
    60.3503  60.4292  60.9813  61.2532  61.3654  61.5151  61.8595  62.6873
    62.7094  62.9824  63.3444  64.1818  64.4931  64.6115  64.9360  65.2063
    65.3125  65.6101  66.2702  66.7390  67.7548  67.9864  68.2044  68.2689
    68.8566  69.0266  69.0865  69.5994  69.7844  69.9994  70.1193  70.2840
    70.3166  70.5115  70.7227  70.9342  71.2123  71.4740  71.6594  72.4216
    72.6187  72.8758  73.7508  73.9267  74.0714  74.3405  74.7009  74.7498
    75.3196  75.3411  75.7415  76.0395  76.0695  76.1250  76.5002  76.5197
    76.9437  77.1636  77.5289  77.6026  77.6602  78.4709  78.4724  79.4493
    79.4813  80.3239  80.4982  81.1466  81.3522  81.6184  81.8125  82.5400
    83.1576  83.2709  83.5312  83.6430  84.3097  85.2668  85.7428  85.8401
    86.1202  86.1284  86.3579  86.7928  86.9416  87.0024  87.0397  87.2476
    87.4649  87.5280  89.5059  89.5932  90.3767  90.8866  91.0380  91.1346
    91.7161  91.7994  92.1658  92.3152  92.6844  92.8204  92.9718  93.4285
    94.2022  94.3041  94.7923  94.8689  94.9822  95.7504  96.0243  96.3596
    96.7493  97.0029  97.0048  97.0799  97.6688  97.7361  98.0694  98.2357
    98.2487  98.3962  99.1700  99.3862  99.5100  99.7525  99.9510 100.6607
   100.7606 101.3612 101.7391 102.3738 102.4913 102.9000 103.0794 103.1156
   103.4234 103.7390 103.8261 104.3709 104.4213 104.5884 104.7166 104.9245
   105.1739 105.5394 105.6887 106.3871 106.4246 106.5062 106.9091 107.1851
   107.4509 107.6275 107.6382 107.6503 108.0874 108.2562 108.2866 108.4784
   108.5492 108.7134 109.0504 109.1012 109.3775 109.5585 109.7168 110.2358
   110.3441 110.4049 110.8648 110.9815 111.4205 111.8358 112.2602 112.3090
   113.1255 113.1471 113.2461 113.7202

          k = 0.0000 0.4811 0.0000 (  8520 PWs)   bands (ev):

   -19.8230 -16.0104 -10.5293  -7.4472  -1.4205   3.3758   4.6083   5.4602
     6.4535   6.8168   8.3400   8.9794   9.6668  10.5437  10.9816  11.7352
    11.8460  12.2939  13.4699  13.8452  14.2447  14.7108  15.3080  15.5653
    16.8527  17.5108  17.8120  18.1283  18.7310  20.2216  21.0793  21.8693
    22.6036  23.3320  23.6243  24.1783  24.7695  25.1030  25.1977  25.6626
    25.9193  26.0123  26.1401  26.5681  27.3993  27.5407  27.8242  28.4448
    28.7561  29.0256  29.1395  29.8992  30.6198  31.1678  31.8586  32.3393
    32.6586  33.6791  33.8189  33.9952  34.4663  34.7681  35.3489  36.4317
    37.5992  37.6911  37.8146  39.3959  40.0892  40.5095  41.1582  41.2553
    41.9643  42.3928  42.6892  44.0732  45.3045  45.5822  46.1210  46.9595
    47.0369  47.1330  47.6801  48.5647  49.4256  50.9682  51.1608  51.1819
    51.8480  52.8013  52.9912  53.0094  53.1122  53.2337  53.3487  53.6834
    54.1045  54.2127  54.6324  54.9164  55.0830  55.1625  56.1014  56.2242
    56.5432  56.8289  56.8908  57.1163  57.7496  58.2536  58.3609  59.1046
    59.9199  59.9320  60.0170  60.2978  60.4982  61.0056  61.1840  61.8054
    62.1736  62.7259  63.2798  63.3300  63.6401  63.8107  63.8665  64.1197
    64.3653  64.5698  64.7608  65.1970  65.2540  65.5068  65.5209  65.6840
    66.3414  66.6099  66.6404  66.9763  67.0086  67.2214  67.4588  67.4776
    67.6750  68.0421  68.2059  68.4455  68.8995  68.9403  69.0360  69.2079
    69.2397  69.8839  70.0876  70.3429  70.4783  71.0540  71.4337  71.6864
    72.0140  72.5064  72.5927  73.1747  73.5900  73.7457  74.1806  74.4489
    74.5355  75.1220  75.1380  75.4906  75.5631  75.7255  76.0422  76.3522
    76.5961  76.8670  77.0262  77.4473  77.8226  78.3537  78.7591  79.2162
    79.4357  79.9917  80.1698  80.2596  80.8980  80.9312  81.3571  81.6707
    81.9134  82.1352  82.4347  83.0473  83.1333  83.4554  83.8475  83.8514
    84.6879  84.9211  85.4848  85.5079  85.5924  85.9708  86.2328  86.4032
    86.4399  86.6415  87.0448  87.3870  87.7814  88.0142  88.1722  88.2492
    88.4597  88.7566  89.1685  90.0623  90.1123  90.7196  91.5674  91.8862
    92.0227  92.1627  92.2283  93.5666  93.7712  94.3786  94.4708  94.7822
    95.3741  95.4068  95.6097  95.6996  96.0892  96.4025  96.5878  96.9352
    96.9612  97.1412  98.1550  98.4503  99.1479  99.1686  99.1850  99.3873
    99.6892 100.0491 101.0864 101.9941 102.2818 102.7973 103.2170 103.2557
   104.0508 104.1764 104.2235 104.3005 104.5530 104.5622 104.8132 105.2368
   105.3211 105.3717 105.5830 105.6927 105.8077 105.9417 106.4951 106.5626
   106.7188 106.8878 107.1100 107.3093 107.4840 107.5493 107.6564 107.7744
   108.8681 108.9284 109.0781 109.0912 109.3835 109.6091 109.8446 110.1875
   110.4544 110.6181 110.7931 110.8435 111.0919 111.2081 111.3355 111.4834
   111.9843 112.0357 112.0692 112.6128

          k = 0.0000-0.5774 0.0000 (  8514 PWs)   bands (ev):

   -18.5456 -17.5322 -10.6935  -6.5976  -2.5245   3.2982   6.9218   7.0683
     7.7614   7.9641   8.9359   8.9586   9.1574   9.3560  10.7560  10.7985
    11.0380  11.6243  13.2966  13.3709  13.4372  14.7213  15.8375  16.1963
    16.4548  16.5125  17.5877  18.4648  18.6054  19.9088  20.1728  21.3566
    22.9765  23.0463  23.2382  23.9559  24.0314  24.9681  25.1134  25.4210
    25.6163  25.6540  26.0761  26.3389  26.5856  27.1346  27.6528  28.0526
    28.5808  28.7969  29.5723  30.1035  30.2924  30.8646  31.4871  31.6245
    31.9717  32.1118  33.6874  33.8828  34.5254  34.7388  36.2073  36.9231
    36.9597  37.2362  37.3284  37.7608  39.5743  40.7402  41.0459  41.7316
    42.0516  43.4502  43.6917  44.2841  44.9156  45.9925  46.0078  46.6041
    46.9225  47.1609  48.8612  50.4665  50.9515  51.2000  51.3553  51.4191
    51.6277  52.0923  52.9008  53.2382  53.3069  54.4164  54.7851  56.2162
    56.8440  57.3462  57.3560  57.4107  58.0930  58.1460  58.2401  58.3200
    58.5426  58.5456  58.6670  58.8556  59.4515  59.4589  59.4880  59.5205
    59.5598  59.7134  60.0484  60.0854  60.1966  60.6096  60.7050  60.8099
    60.8882  61.1903  61.5684  61.6025  61.7781  61.9099  62.0514  62.9480
    63.2952  63.5353  64.0483  64.1792  64.3927  65.2172  65.3539  65.9410
    66.1199  66.4240  66.7385  66.7693  67.2515  67.3448  67.4176  67.9685
    67.9746  68.4832  69.1621  69.2496  69.3075  69.5451  69.5616  69.7537
    70.1171  70.2494  70.3924  70.5831  70.9324  72.6914  73.2639  73.4166
    73.4354  73.6522  74.1459  74.3275  74.3368  74.6760  74.7213  74.7475
    75.2137  75.3173  75.3207  75.3251  75.4446  76.0169  76.1749  76.6231
    76.8760  76.9715  77.1604  77.3724  78.0090  78.0224  78.3583  78.4070
    79.2271  79.2461  79.5069  79.7294  79.7992  79.8737  79.9032  79.9985
    80.2416  80.4320  80.4546  80.4937  81.7492  81.8283  82.7235  82.9478
    83.2411  83.8832  84.4205  84.5532  85.7459  85.8577  85.9895  86.0334
    86.0369  86.3610  86.3951  86.4149  86.5101  86.5553  86.8396  87.1086
    87.6880  88.6346  88.9261  89.8194  90.6667  90.6682  90.7732  90.9424
    91.0949  92.0665  92.2723  92.6430  92.9744  93.3454  93.4032  93.4704
    93.4779  94.1024  94.7684  95.8858  96.0601  96.0766  96.4345  96.4434
    96.4627  96.6388  97.5941  97.6462  99.7035 100.1808 100.3841 100.8617
   100.9827 101.0000 101.2418 101.2945 101.3433 101.5882 101.9419 101.9807
   102.2472 102.6201 102.8998 102.9981 103.0180 103.5041 105.1962 105.4125
   105.7109 105.9540 106.4836 106.9330 107.0883 107.1928 107.2925 107.6505
   107.7520 107.9089 107.9211 108.1316 108.1733 108.1908 108.3506 108.4171
   108.5683 108.9397 109.0331 109.1256 109.2792 109.3097 109.3115 109.7764
   109.8216 109.8923 109.9715 110.0837 110.1169 110.2106 110.2495 110.3396
   110.7734 110.8093 111.4311 111.4738

          k = 0.0833 0.1443 0.0000 (  8609 PWs)   bands (ev):

   -23.3255 -11.3073  -8.9678  -8.3022  -0.3003   0.5011   1.4346   1.8491
     3.3703   4.1524   4.5892   5.6834   5.8098   6.0837   7.2678   9.4264
     9.5088  11.1281  13.3480  15.6103  17.8946  19.2512  19.7297  21.4936
    22.2194  23.2203  24.3200  24.8399  25.5992  25.7468  25.8383  26.2285
    26.3397  26.9277  27.0564  28.0964  28.2518  28.3063  29.2939  29.3255
    29.8026  30.7130  30.7858  31.2266  32.4627  32.5767  32.7369  32.7408
    33.7937  34.0412  34.0981  34.1678  34.2855  34.5069  34.6529  35.2386
    35.3866  36.1507  36.2665  36.3267  36.3659  36.8172  37.1598  37.7928
    37.8784  37.8850  37.9591  38.7753  38.9252  39.9777  40.0626  40.1795
    40.8332  41.4388  41.5105  41.6897  41.9418  42.0960  42.2886  42.3550
    42.5189  42.7936  43.0588  43.1230  43.2988  43.4647  43.8388  44.0816
    44.4078  44.5772  45.0848  45.2175  45.5867  45.8909  46.1581  46.2229
    46.6485  46.8331  47.3968  47.4181  48.0612  48.3799  48.4699  48.7205
    49.3316  49.6545  49.9102  50.4988  50.5714  51.3613  51.5004  51.5889
    52.2777  52.6262  53.3562  53.7592  53.7770  53.9907  54.3260  54.7212
    55.0625  55.3404  55.5027  56.2151  56.5979  57.6744  58.1315  58.8256
    59.5809  59.5885  59.6253  60.9391  61.0120  61.2849  61.5686  61.7247
    62.3881  62.5166  62.5218  63.4597  63.7159  64.1214  64.1640  65.2766
    66.8037  67.2290  68.3624  68.4165  68.7796  68.9868  69.0773  69.3237
    69.9777  70.1166  70.2741  71.2027  71.5614  71.8876  72.6620  73.9352
    74.6179  75.6110  76.2621  76.7405  77.0556  77.1402  77.1570  77.2718
    77.3426  77.7594  77.8448  78.2023  79.2861  80.7578  81.7271  81.8679
    82.4934  82.9599  83.2933  83.5219  83.8404  83.8817  84.8435  85.0627
    85.2545  85.4109  85.4560  85.7643  85.7841  86.1996  86.4246  86.4734
    86.5950  86.6996  86.9479  87.1574  87.5399  88.5738  89.1924  90.4189
    90.4948  91.2595  91.3410  91.8602  91.9255  92.1546  92.3514  92.4488
    92.7238  93.2079  93.3641  94.0146  94.0227  94.1653  94.1871  94.3154
    94.4120  94.7573  94.9659  95.1376  95.1948  95.3907  95.6034  95.6811
    96.1554  96.3029  96.3705  96.9825  97.0098  97.3752  97.8717  98.3244
    98.8840  99.4714  99.5391  99.6462 100.0873 100.3815 100.6215 101.0498
   101.4367 102.7843 102.8160 103.0353 103.3879 103.5751 103.6078 104.2786
   104.2787 104.6986 104.9703 105.1535 105.4135 105.9732 106.0867 106.1919
   106.4368 106.7779 106.8278 107.6090 107.6760 107.7506 108.0933 108.2183
   108.2618 108.3566 108.4738 108.7832 108.9789 108.9887 109.0427 109.5051
   109.5491 109.6192 109.8279 109.9411 110.9927 111.0295 111.7497 111.8479
   111.9561 112.1426 112.2588 112.6814 113.0105 113.1643 113.5332 113.5449
   113.6820 113.7427 114.0852 114.0961 114.5088 115.0757 115.1553 115.3453
   115.5924 115.6334 115.7549 115.8340

          k = 0.0833 0.2406 0.0000 (  8564 PWs)   bands (ev):

   -22.6730 -10.6862 -10.5341  -9.3099   0.5943   1.4033   2.3470   2.7524
     3.9281   4.2559   4.7627   5.0473   6.9787   7.3536   8.1315  10.3209
    11.0913  11.9037  14.2320  15.6189  17.5846  18.7178  19.5618  20.3030
    21.1493  21.4258  21.8667  21.9889  23.0106  23.0321  23.8172  23.8679
    24.1982  24.5604  25.0930  25.1474  26.2756  26.5540  26.7197  27.6010
    28.5154  28.9424  29.3107  29.6698  30.1760  30.8115  31.1859  31.7812
    32.2667  32.3068  32.7708  33.2131  33.4975  34.3776  34.5085  35.0473
    35.6170  35.9031  36.1763  36.6788  36.8869  37.2772  37.2966  37.7260
    37.9043  38.3177  38.9501  39.3417  39.6270  39.6765  39.9903  40.5452
    41.1014  41.1245  41.4107  41.7466  42.2162  43.0952  43.1915  43.5074
    44.0908  44.2513  44.6353  45.1887  45.3721  45.4961  45.9277  46.0286
    46.2695  46.7544  47.0283  47.7285  47.7917  48.3632  48.4393  48.6442
    49.0044  49.0373  49.3387  49.6609  49.7475  49.9556  50.1908  50.8992
    50.9996  51.4689  52.0206  52.3385  52.3505  53.0370  53.5118  53.5451
    53.7015  54.0212  54.1246  54.7096  54.7997  55.4900  55.8519  56.5599
    57.0488  57.1659  57.8652  58.1566  58.8537  59.0320  59.5877  59.7529
    60.0812  60.3175  60.9470  60.9749  61.3021  62.2517  62.8392  63.3393
    63.3820  64.2726  64.4516  65.2014  65.4484  65.4787  65.9972  66.7625
    66.9239  67.3606  67.3710  68.0535  68.3632  69.9804  70.2069  70.8916
    71.8302  72.1768  72.2797  72.7508  72.9930  73.2194  73.6657  73.7089
    74.4797  74.9179  75.2869  75.4959  75.8336  76.0743  76.5263  76.5416
    76.5783  76.7218  77.6485  77.6604  78.8133  79.0385  79.0715  80.0165
    80.4116  80.8472  81.2476  81.3476  81.6176  81.8441  82.1811  82.7747
    83.3291  83.6213  83.7810  84.0099  84.0380  84.2197  84.4664  84.5603
    84.8474  84.9071  85.2059  85.3158  85.8554  86.6011  87.3481  87.7386
    87.9322  88.3031  89.1380  89.1680  89.2436  89.4426  90.2337  90.3665
    91.0325  91.1670  91.6528  91.8479  92.1320  92.3019  92.5211  92.7964
    92.8645  93.0971  93.4483  93.7059  93.9174  93.9690  94.3171  94.8193
    95.2780  95.5660  95.6160  95.8178  96.4779  96.9496  97.2120  97.2549
    97.5349  97.7530  98.1314  98.1768  98.8496  99.1058  99.2805 100.0285
   100.2779 100.2799 100.9208 101.0892 101.3131 101.8327 102.1328 102.5317
   102.8361 103.5843 103.6105 104.3180 104.3362 104.7705 105.0457 105.4792
   105.5115 105.8272 105.9011 106.2876 106.6288 106.7101 106.9617 107.1790
   107.2440 107.7769 108.0147 108.2694 108.2921 108.4900 108.7286 109.0536
   109.2699 109.3987 109.6178 109.8744 110.1544 110.2896 110.3336 110.6092
   110.6650 110.9359 111.1287 111.4873 111.9974 112.1175 112.2765 112.2831
   112.5477 112.6994 113.1270 113.1329 113.5296 113.8437 113.9052 114.2351
   114.3513 114.6140 114.6411 114.8019

          k = 0.0833 0.3368 0.0000 (  8542 PWs)   bands (ev):

   -21.7047 -12.7700 -10.2049  -9.4107   1.7429   1.9319   2.7770   3.7114
     4.1153   4.4938   5.6517   6.3738   8.3200   9.3785   9.4813  11.6529
    12.6579  12.8463  14.5177  15.5264  16.2335  16.8147  17.6161  17.8738
    18.5097  19.4396  19.7384  19.9840  20.9767  21.4241  21.9952  22.5000
    22.9147  23.2363  23.5722  23.7586  24.7553  24.9789  25.5052  25.9624
    26.1292  27.5334  27.5891  28.9886  29.2928  29.6606  29.7388  30.4610
    30.9208  31.3171  31.3262  31.7414  32.3192  33.1171  33.2170  33.9456
    34.0405  34.3960  34.7981  35.8060  36.6337  37.2330  37.7555  38.0297
    38.1879  38.9836  39.0582  39.5709  39.7760  40.1515  40.2453  41.7315
    41.7316  42.1646  42.5871  43.0777  43.2010  43.3649  44.1699  44.3030
    45.0102  45.3395  45.4851  45.5051  46.6758  46.8900  47.0046  47.5834
    47.7217  48.7472  49.0456  49.9429  50.0093  50.0738  50.5507  50.8564
    50.9855  51.5788  51.9474  52.1979  52.4614  52.8373  53.0733  53.6266
    53.6900  54.1850  54.5264  54.8622  55.1929  55.5019  56.1456  56.1837
    57.0179  57.1611  57.5749  57.6079  57.6669  57.9412  58.4108  58.6641
    58.7100  58.9711  59.3819  60.0678  60.3789  60.6212  60.8347  61.1229
    62.3878  62.4153  62.9710  63.1786  63.5543  64.2473  64.4251  64.7882
    65.3003  65.6100  65.6756  66.1057  66.2636  66.8367  67.1363  67.4949
    68.0969  68.6777  68.8994  69.0217  69.4616  69.5542  69.8738  70.6388
    70.7333  71.0600  71.2337  71.6745  72.1354  72.5269  72.7582  73.2045
    73.3181  73.7042  73.7948  73.9431  74.2756  74.8132  75.8695  75.9886
    76.1331  76.4553  77.1446  77.2553  77.3696  77.4400  77.6790  77.9439
    78.1395  78.1414  78.3830  78.8729  79.2261  79.6952  79.9330  80.0781
    81.0399  81.4430  81.5870  82.4850  82.5143  82.8078  82.8799  83.4106
    83.5764  84.0956  84.6094  84.9372  85.0285  85.2892  85.3317  85.3744
    85.5254  86.0247  86.2571  86.3315  87.1003  88.0474  88.1540  89.1004
    89.5748  90.1509  90.2294  90.7030  90.9811  91.3890  91.7360  92.0600
    92.1579  92.8067  92.8896  93.3083  93.4302  93.5544  93.7353  93.9725
    94.2363  94.7280  95.3310  95.4348  95.5352  95.7698  95.7897  96.6513
    96.8678  97.0464  97.0843  97.5452  97.6464  97.9458  98.3799  98.5979
    98.6006  98.6988  98.9583  99.1457  99.4378  99.5826 100.0503 100.7800
   100.7808 100.8773 101.0673 101.4473 101.5576 101.7749 102.0627 102.4738
   102.5454 102.9164 103.2434 103.3782 103.5229 104.2014 104.6411 104.7156
   105.1120 105.4450 105.5148 105.6141 106.1226 106.6563 106.7372 107.3600
   107.5472 107.5652 108.0754 108.1444 108.5920 108.9375 109.3184 109.4092
   109.6035 109.6640 110.1695 110.2260 110.6284 110.6496 110.8873 110.9123
   111.1211 111.4429 111.4800 111.7918 112.1234 112.4365 112.4579 112.6381
   112.7648 112.9414 113.0072 113.0703

          k = 0.0833 0.4330 0.0000 (  8522 PWs)   bands (ev):

   -20.4390 -14.9040 -10.8462  -8.0221  -0.4682   3.6887   4.2306   4.5535
     5.5451   5.9078   7.4440   8.0946  10.0898  10.6416  10.6746  12.0459
    12.8881  13.4097  13.4732  13.8496  14.4882  15.1930  15.7183  16.6528
    16.9042  17.2180  18.8349  19.0433  19.7170  20.1609  21.1399  21.4608
    21.6682  22.0559  22.1078  22.8444  23.6129  24.0478  24.2309  25.0976
    26.0494  26.0967  26.6147  27.6916  27.8220  28.4141  29.0175  29.7231
    29.9471  30.3876  30.6305  30.8569  31.7251  31.9618  32.1089  33.3592
    33.4824  33.8231  34.4536  34.7516  35.5676  35.9836  36.3557  36.8874
    37.4195  38.4773  38.5734  39.4283  40.1616  40.3933  41.3649  41.6196
    42.3390  42.4235  42.7798  43.8122  44.4177  45.3121  45.5591  46.4469
    46.7248  46.9863  47.1612  47.7167  48.0081  48.3050  48.7427  48.9788
    49.3048  50.0083  50.1272  51.0266  51.4265  51.7994  52.5596  52.8317
    53.0942  54.2701  54.3767  54.8899  55.0228  55.5406  55.9254  56.1842
    56.5061  56.5987  56.6476  56.8907  57.0293  57.3195  57.6440  57.9187
    58.3381  58.5385  58.6253  59.5105  60.6828  61.0695  61.6105  61.7461
    62.1244  62.1426  62.9484  63.0436  63.1974  63.2941  63.3301  63.6082
    63.8550  64.1931  64.2883  64.4164  64.6025  64.9189  65.0389  65.1156
    65.5210  65.6380  65.8151  66.2055  66.2961  66.6997  66.7894  67.1613
    67.8664  67.9931  68.2106  68.7759  69.6028  69.8570  69.9471  70.4707
    70.5120  71.0120  71.1907  71.4760  71.5906  71.8158  72.2520  72.2572
    72.9001  72.9783  73.3588  73.6617  73.9820  74.2041  74.2921  74.3351
    74.4603  74.7392  74.9685  75.1934  75.6715  75.8695  76.1086  76.3294
    76.4521  77.3993  77.7227  78.6416  78.8044  79.0232  79.5404  79.5749
    79.8703  80.6384  80.7686  81.1230  81.8234  81.9457  82.1569  82.1759
    82.7411  82.9315  83.0157  83.4166  83.4765  84.4282  84.7806  84.7848
    84.8039  85.4232  85.9827  86.4716  87.1326  87.3624  87.4251  87.5878
    87.8031  88.3041  88.3961  88.7821  89.1530  89.6798  89.8424  90.0348
    90.2710  90.7106  90.8236  91.0531  91.0609  91.5396  91.5617  91.8533
    92.1058  92.6008  92.6824  93.2634  93.8406  94.1162  94.9304  94.9495
    95.1488  95.7465  95.9051  96.4346  96.6383  96.6923  96.9153  97.1172
    97.6206  97.6830  97.9251  98.0767  98.2467  98.3349  98.7522  98.7657
    98.8915  98.9815  99.2454  99.3113  99.9056 100.2156 100.5214 100.9486
   101.0633 102.3324 102.5637 102.7517 103.1978 103.3570 103.8078 103.8414
   104.2425 104.3487 104.4293 104.9594 104.9838 105.3940 105.8129 105.9217
   106.1142 106.3521 106.4158 106.5663 106.7593 106.7817 106.9890 107.1147
   107.4926 107.5441 107.8591 108.1974 108.1979 109.1407 109.5774 109.7838
   109.8736 110.1885 111.0690 111.1600 111.4622 111.7361 112.0893 112.2525
   112.2842 112.6777 113.0028 113.2182

          k = 0.0833 0.5292 0.0000 (  8522 PWs)   bands (ev):

   -18.9503 -16.8578 -11.1780  -6.7047  -2.2471   4.0373   5.9104   6.7330
     7.8125   8.0868   8.4446   9.1784   9.6718  10.1618  10.5092  10.8084
    12.1109  12.1928  12.2969  13.3835  14.2798  14.6063  15.2768  15.7221
    16.6261  17.5560  17.6907  18.7028  19.3713  19.6842  19.7695  21.0347
    21.1889  21.4908  21.7647  22.3863  23.0763  23.1835  23.5576  24.6219
    25.0363  25.6448  26.1162  27.4704  27.5063  27.8216  28.3955  29.2017
    29.3996  29.8726  30.0948  30.2490  31.0423  31.5700  31.9326  32.4687
    32.9688  33.1663  34.0771  34.2199  34.9647  35.4441  36.0564  36.7313
    37.5474  37.8726  38.1536  38.8367  39.7610  40.2955  41.5358  41.6882
    42.7196  43.3306  43.5059  44.6426  44.8975  44.9038  45.5970  46.2827
    46.8613  48.7574  48.9991  49.7438  50.0100  50.3909  50.6172  51.2168
    51.4228  51.8027  51.9993  52.7622  52.8210  53.2824  53.2909  54.2455
    54.5607  54.9596  55.1583  56.1602  56.3796  56.5709  56.9499  57.0699
    57.5049  57.7564  58.0084  58.1267  58.3700  58.6588  59.0221  59.3108
    59.4944  59.5935  60.2167  60.3619  60.5797  60.6555  61.1471  61.7183
    62.0661  62.2126  62.3588  62.8380  63.3674  63.5861  63.8386  63.9357
    64.2577  64.2729  64.3817  64.8601  65.1934  65.2436  65.4783  65.9439
    66.0712  66.6255  67.1277  67.5485  67.6940  68.1170  68.1938  68.2168
    68.6844  68.8714  69.0195  69.1377  69.5520  70.0145  70.6338  70.6679
    70.9171  71.0912  71.1415  71.3702  71.9885  72.3129  72.3527  72.3971
    72.6891  72.7938  72.8189  73.0291  73.4000  73.5198  73.6660  73.9333
    74.4488  74.5170  75.3621  75.7945  76.2150  76.7392  77.0584  77.2733
    77.6677  77.7431  78.1748  78.5049  78.6269  78.7396  79.0665  79.1515
    79.5878  79.7117  79.8357  80.4414  80.7279  80.9781  81.2814  81.2844
    81.5238  81.5847  81.8064  81.8589  82.0748  82.1491  82.3922  82.8707
    83.1547  83.2861  84.2395  84.2570  85.2217  85.5630  86.0228  86.3740
    86.7228  86.8260  86.9374  87.5047  87.6061  87.7976  88.1515  88.3829
    88.9139  89.5024  89.6758  89.6983  90.3421  90.6260  91.0191  91.2029
    91.6678  91.9770  92.3330  92.4094  92.5930  92.8334  93.1756  93.2675
    93.9506  94.1365  94.3521  94.7800  94.8543  95.0241  95.1496  96.0839
    97.1019  97.5158  98.4133  98.5640  98.7411  98.9009  99.1768  99.4449
    99.7578  99.9851 100.0455 100.0866 100.4421 100.6451 100.8599 100.8725
   101.1400 101.2024 101.2903 101.7396 101.8169 102.0816 102.5382 102.6419
   102.7152 102.9519 103.2415 103.2728 103.5546 103.6241 103.6992 104.1530
   104.8352 105.1209 105.3242 105.5824 105.9264 106.0514 106.4253 106.6306
   106.9656 107.4875 107.8397 108.2920 108.3344 108.6125 109.3711 109.3799
   109.5270 110.2892 110.4957 110.8406 111.1285 111.2078 111.3120 111.8176
   112.2127 112.4095 112.4903 112.9312

          k = 0.1667 0.2887 0.0000 (  8555 PWs)   bands (ev):

   -21.8655 -12.0219 -10.6828  -9.5906   1.7111   2.2031   2.5250   3.4878
     3.8784   5.3839   5.9614   6.1380   7.4660   8.1075   9.1378  11.4320
    12.3697  13.2704  14.3577  15.3169  18.0175  18.0945  18.5116  18.5255
    19.5571  19.7151  20.0271  20.1067  20.1199  20.8975  21.5869  22.0023
    22.0358  22.9075  23.1634  23.7316  24.3888  24.6869  24.9365  25.7180
    26.6565  27.1458  27.7869  27.9765  28.2951  29.9792  30.4841  31.3443
    31.4100  31.7968  32.0070  34.2621  34.3166  34.4855  35.2188  35.9117
    35.9476  36.2170  36.3503  36.6398  36.8434  36.9196  37.0114  37.6363
    37.6439  38.2056  38.6019  38.6461  39.8174  39.8621  40.1642  40.4210
    41.0887  41.1095  41.6589  41.7613  42.1263  42.6290  42.8890  43.6865
    44.1198  44.4420  44.9131  46.2696  46.3815  46.7421  47.4534  47.5204
    47.7299  47.7456  47.8766  48.4972  48.6599  50.8317  51.2225  51.4071
    51.5296  52.4783  52.5434  52.6924  52.8500  53.0304  53.2700  53.2840
    53.5117  53.9498  54.1668  54.3836  54.5944  54.9994  55.1191  55.1684
    55.3229  56.0211  56.5709  57.2328  57.3163  57.3775  57.3794  58.0876
    58.3719  59.1099  59.3210  59.3532  60.0308  60.5670  61.0132  61.6731
    62.5234  62.6221  62.6270  63.1566  63.1950  63.6357  63.8049  63.9526
    64.1252  64.5900  64.6616  64.8654  65.6290  66.8193  67.7184  68.1538
    68.4248  69.0108  69.0618  69.4429  69.7561  69.7591  70.1797  70.5489
    70.7250  71.0025  71.0499  71.1276  71.2329  71.8463  72.5813  72.8348
    72.9616  73.2316  73.7104  74.2138  74.5307  74.7504  75.3512  75.5856
    75.8604  76.9013  76.9300  77.3373  77.6608  78.3403  79.0489  79.0792
    79.9874  80.0612  80.1557  80.1856  80.3681  80.6573  80.8070  80.9835
    81.5106  81.6060  81.6672  83.7089  83.8718  84.6740  84.8975  85.0935
    85.4692  85.5328  85.7066  85.7266  86.3027  86.3809  86.8960  86.9852
    87.0692  87.5330  87.7584  87.8392  87.9156  87.9389  88.1668  88.4362
    88.6171  89.1452  89.2067  89.3206  89.4600  90.1555  90.3630  90.8667
    90.9863  91.0788  91.4038  92.4728  92.4747  93.1888  93.5778  93.6553
    94.0680  94.1603  94.7281  95.0550  95.1996  95.4054  95.9888  96.1317
    96.6617  96.9058  97.0154  97.0297  97.2134  97.2808  97.4201  97.7757
    97.9852  98.2894  99.3866 100.1011 100.1949 100.6535 100.9281 101.0807
   101.6629 101.9775 102.1641 102.3250 102.3522 102.3557 102.5379 102.7879
   103.1037 103.2466 103.4736 103.6319 103.6805 103.7628 103.7903 104.3180
   104.6662 104.8523 105.1133 105.7182 105.8249 105.8400 106.2434 106.4990
   106.6466 107.0584 107.3487 107.3940 107.4745 108.0320 108.0360 108.3532
   108.5720 109.1743 109.4648 109.7005 109.7291 110.0157 110.4740 111.0090
   111.2200 111.3210 111.6431 112.4704 112.8150 113.0766 113.2574 113.2704
   113.2821 113.4615 113.6073 113.9551

          k = 0.1667 0.3849 0.0000 (  8549 PWs)   bands (ev):

   -20.7533 -13.7580 -11.7465  -8.3293   0.2446   3.2654   4.0749   5.0809
     5.4338   6.1435   7.0043   7.5974   8.8975   9.6701  10.0927  11.9213
    12.9603  14.1046  14.8670  15.5345  15.7240  16.4221  16.5698  16.7992
    17.3952  17.9430  18.3186  18.7709  18.9380  19.2232  20.0466  20.4010
    20.9360  21.1753  21.1847  22.4474  22.8905  23.7595  23.8938  24.5778
    24.9339  25.8006  26.8039  27.2854  27.3733  28.2770  29.0049  29.9760
    30.7155  31.9366  32.2312  32.5949  32.9376  33.3792  34.3884  34.7904
    35.1241  35.5591  35.9863  36.6502  36.9551  37.4051  37.8689  38.3276
    38.8340  38.9122  39.5406  39.8242  40.4540  40.4576  40.6669  40.7915
    41.3010  41.7941  41.8078  42.7849  43.2194  43.4466  43.9910  44.3345
    44.5332  45.6073  45.7976  46.2531  46.8729  47.3192  47.5180  47.8269
    48.0122  48.8798  50.0696  50.5802  51.0329  51.3625  51.6705  51.8116
    52.5630  53.1067  53.8285  53.9971  54.4878  55.5832  55.6359  55.9332
    56.5182  56.6876  56.9147  57.0433  57.3908  57.9333  58.0517  58.3785
    58.5794  58.8337  59.6077  59.7212  60.2490  60.3204  60.6176  60.6756
    61.1139  61.1756  61.3770  61.6071  62.2281  62.3553  62.5350  62.6153
    62.9168  63.1053  63.4581  63.5016  63.9202  63.9868  64.6650  64.6988
    65.4746  65.5444  65.9978  66.0478  66.1936  66.9349  67.0191  67.2294
    67.9447  67.9723  68.1962  68.3457  68.6325  69.0011  69.7118  69.9012
    69.9369  70.2200  70.8304  70.9251  71.0399  71.3505  72.6711  72.7186
    73.3173  74.2240  74.2284  74.6481  74.6669  75.3911  75.8354  75.8948
    76.1249  76.6268  76.8831  77.3507  77.5131  77.9040  78.2022  78.5903
    78.9595  78.9771  79.0275  79.2764  79.4692  79.5717  79.8103  80.3196
    81.0575  81.1700  82.0318  82.3109  82.4022  82.7771  83.5882  83.6012
    83.9498  84.1744  84.7646  84.8227  85.3156  85.4704  85.9837  86.1139
    86.5246  86.5324  86.7241  87.1616  87.2449  87.2789  87.3813  87.7134
    88.0857  88.1592  88.4604  88.8225  89.0764  89.6085  89.9055  89.9875
    90.2594  90.9315  91.1091  91.4051  91.4223  91.6260  91.9613  92.1577
    92.4038  92.6223  92.8233  93.4075  93.6523  94.1637  94.2426  94.5500
    94.5944  94.8318  95.0446  95.3731  95.4207  95.7636  96.0733  96.4595
    96.6013  96.7697  97.4846  97.5523  97.5712  97.8324  98.0811  98.2842
    98.2997  98.5978  98.9539  99.2428  99.5479  99.7325  99.8962  99.9532
   100.1356 100.1508 100.6873 100.7077 100.8640 101.2065 101.4482 102.0293
   102.1250 102.2573 102.4170 102.9607 103.3698 103.6136 103.8478 104.4024
   104.7689 105.0838 105.1595 105.6953 105.7334 106.3352 106.3822 106.7872
   107.5466 107.6748 108.3009 108.3701 108.6045 108.7716 109.1568 109.1850
   109.3546 109.5946 109.8045 110.5779 110.6360 110.7007 111.0885 111.5035
   111.6751 111.8354 112.1400 112.2462

          k = 0.1667 0.4811 0.0000 (  8539 PWs)   bands (ev):

   -19.3709 -15.6798 -12.3260  -6.8933  -1.6792   5.2320   5.9537   5.9795
     7.1331   7.3418   8.9151   8.9933   9.7089  10.3681  11.5974  11.9939
    12.1185  12.9698  13.0430  13.6713  14.6682  14.9515  15.4849  16.3933
    16.8113  17.0481  17.5311  18.1094  18.3056  18.4567  18.7484  19.1692
    20.0407  20.6625  20.7254  21.4962  21.7102  22.3617  22.8692  24.1377
    24.2950  24.9735  25.3111  26.2012  26.7222  28.3359  28.9190  29.0738
    29.3818  30.0510  31.9171  32.4247  32.7096  34.0637  34.2122  34.4707
    34.5661  34.7861  35.2937  35.3357  36.1890  36.2476  37.6493  37.7344
    38.6735  39.4793  39.4939  39.9783  40.7033  40.8317  41.5993  41.6739
    42.4538  42.8390  43.9763  44.7048  44.7990  45.3769  45.6390  45.7226
    46.2859  46.6296  46.6609  47.6271  47.8543  47.9806  48.6802  49.1636
    49.7307  49.8165  50.3166  50.9679  51.2816  52.6262  52.6324  52.9970
    53.7530  54.3948  54.6168  55.0484  55.1764  55.7349  56.1224  56.2419
    56.3254  56.4917  56.9545  57.0515  57.6683  58.1246  58.8043  58.9606
    59.1889  59.7972  60.4676  60.5331  60.9419  61.2366  61.4581  61.6856
    61.7599  62.0226  62.2855  62.3818  62.5206  63.2128  63.5746  63.8455
    64.3176  64.4662  64.7528  65.4807  65.4855  66.2780  66.5332  66.6000
    67.2273  67.3779  67.5311  67.6054  67.8958  68.0400  68.2189  68.5175
    68.7625  69.0596  69.4332  69.5803  69.7094  70.4192  70.8329  71.0405
    71.2684  71.5461  72.2365  72.4792  72.7597  72.8150  73.0263  73.2078
    73.2800  73.5232  73.6748  73.8568  74.3040  74.5474  75.1523  75.2350
    75.8348  76.3629  76.6608  76.9980  77.3970  77.5815  77.7608  77.9140
    77.9577  78.2144  78.3257  78.6826  78.7420  78.9677  79.5289  79.6611
    79.9627  80.2461  81.1143  81.2015  82.1425  82.4092  82.8171  83.0724
    83.4022  83.6891  83.8205  84.0503  84.0719  84.2502  84.2964  84.5522
    84.9343  85.1803  85.3935  85.7552  85.9464  86.3269  86.5533  87.1181
    87.7363  87.8205  87.9837  88.2517  88.5665  88.7977  88.9399  89.0912
    89.1383  89.1954  89.5171  89.5905  89.7601  89.9337  90.1892  90.4003
    90.7607  90.8557  91.3087  91.4425  92.0972  92.3438  92.7229  92.8934
    93.1344  93.7732  94.0018  94.2347  94.5279  94.8438  94.8927  94.9490
    95.2157  95.2396  95.3912  95.6205  95.8417  96.2021  96.3700  96.4208
    96.6488  96.9328  96.9508  97.2668  97.8738  97.9377  98.2133  98.5899
    98.6015  99.4921  99.8173  99.8659  99.9654 100.1706 100.4491 100.6111
   100.6582 100.8408 101.0262 101.8471 101.9303 102.1554 102.5508 103.3014
   103.5063 104.0325 104.5741 104.8348 104.9617 105.0905 105.5147 105.5905
   105.6383 106.1145 106.1876 106.2487 106.4735 106.9111 107.3996 107.6337
   107.9917 108.1152 109.3082 109.6509 109.9968 110.3569 110.6236 111.0309
   111.3049 111.4617 111.5103 111.8538

          k = 0.1667 0.5774 0.0000 (  8510 PWs)   bands (ev):

   -18.1240 -17.1288 -12.5120  -5.9951  -2.7536   5.8479   7.4286   7.4871
     7.6786   8.6453   9.4315   9.5846   9.6240  10.0400  10.8531  11.2817
    11.4157  12.3031  13.0917  13.2926  13.8916  14.9742  15.3923  15.8414
    16.1888  16.7899  17.2775  17.6569  17.9820  18.3420  19.2643  19.3622
    19.5612  19.7065  20.0026  21.1744  21.8891  22.2846  22.8078  22.8838
    23.8746  24.8464  25.8465  26.1927  26.2640  26.7093  28.2909  29.1607
    29.6979  30.9056  31.4998  31.7391  32.1836  32.7519  33.8777  34.1140
    34.5993  34.8882  35.0734  35.9086  36.5765  36.8514  37.5672  37.8311
    38.2267  38.3974  39.4530  39.8214  39.8791  40.6438  42.2550  42.4238
    43.7267  43.9154  44.2394  44.4280  44.9185  45.2123  45.6413  45.7527
    46.3464  49.0075  49.0271  49.5753  50.0943  50.4661  50.5389  50.7546
    50.9978  51.1918  51.3623  51.6143  51.8782  51.8806  51.9236  52.5567
    52.9026  53.0906  53.3829  54.0405  54.1271  54.1683  54.9112  55.5397
    55.9867  56.0569  56.1021  56.3732  57.2005  57.9542  58.3579  58.7484
    59.2578  59.7530  59.9689  60.6590  60.8989  61.0038  61.1240  61.5770
    61.7340  61.8587  62.3211  62.7694  63.0347  64.9340  65.2030  65.6544
    66.2498  66.3509  66.9343  66.9429  67.2567  67.2892  67.4135  67.4335
    67.6925  67.8136  68.0721  68.4487  68.9152  69.1162  69.1174  69.2019
    69.4773  69.5875  70.2571  70.3498  70.5344  70.6527  70.9454  71.0966
    71.8313  72.1662  72.2425  72.2482  72.3341  72.7416  73.8081  73.9645
    74.0883  74.4472  75.1522  75.3505  75.4369  75.6221  75.8232  75.9938
    76.0297  76.3659  76.6878  76.8495  77.2021  77.4193  77.5582  77.9014
    78.2467  78.3619  78.4025  78.4805  78.7518  78.7657  78.9816  79.1986
    79.4425  79.4664  79.6431  80.1867  80.5022  80.5204  80.7962  80.8550
    81.5865  82.1462  82.3375  83.0562  83.1929  83.2107  83.7044  83.7343
    84.0998  84.5426  84.8925  85.1514  85.4453  85.5847  85.7608  85.8206
    86.6261  86.7063  87.1571  87.7523  87.9136  87.9435  88.0560  88.4539
    88.8288  88.9490  89.5697  89.7985  90.3963  90.4916  90.7293  91.3852
    91.4581  91.4617  91.6527  91.7629  91.8892  92.0238  92.3192  92.5121
    92.6708  92.8203  92.8752  93.2619  93.4072  93.4710  93.7200  94.1536
    94.2649  94.7291  94.8176  94.8346  95.2946  95.4448  95.4834  95.5380
    95.8450  96.2033  96.7798  97.0248  97.1598  97.2240  97.6041  98.0253
    98.4098  98.4675  99.4029  99.7568  99.8355 100.2576 100.2793 101.3771
   101.5338 101.7516 102.0467 102.1957 102.2568 102.3714 102.4075 102.4723
   102.6834 102.9695 103.1374 103.4001 103.6208 103.7313 103.7999 104.0592
   104.3510 104.8650 104.9111 105.2194 106.8933 107.3397 107.9683 108.3190
   108.6642 108.7066 108.9162 109.2639 110.2857 110.3579 110.4145 110.4664
   110.8129 110.8508 111.1217 111.4607

          k = 0.2500 0.4330 0.0000 (  8547 PWs)   bands (ev):

   -19.5197 -14.7948 -13.2413  -6.9777  -1.3801   5.0205   5.6934   6.8971
     7.0631   8.1232   8.5393   8.5639   8.8107  10.2129  11.4058  12.9283
    13.5429  13.7609  14.0434  14.6306  14.6850  15.2107  15.2988  15.4820
    15.9014  16.9072  16.9869  17.1334  17.6634  18.1390  18.6097  18.6475
    19.6853  20.1797  20.6097  20.9432  21.0461  22.2730  23.2678  23.2825
    24.1474  24.1759  25.6028  26.9745  27.0883  27.3073  27.9025  28.9914
    30.6434  31.1122  31.2857  31.5257  31.8142  34.0404  34.9584  35.5698
    36.2125  36.3593  36.8128  37.6706  37.7160  39.1502  39.1987  39.7116
    39.8040  39.9556  40.3115  40.7163  40.9667  40.9708  41.5408  41.8302
    42.2253  42.2720  42.7556  43.2061  43.2528  43.2939  43.6056  44.8810
    44.9098  45.6373  45.8171  46.9077  47.8384  47.9734  48.1234  48.9478
    49.2553  50.1984  50.2038  50.2253  50.3763  50.9163  51.6898  51.9063
    52.8844  54.2251  54.7462  55.2623  55.7553  55.7755  55.8995  55.9362
    56.2105  56.5460  56.7935  57.3876  57.7920  58.1308  58.1590  58.2119
    58.8443  58.8582  59.4150  59.6996  60.0254  60.7339  60.9893  61.2608
    62.3065  62.3777  62.7059  63.4655  63.8896  64.1434  64.2279  64.5265
    64.5800  64.7210  65.0523  65.0950  65.6085  65.8670  66.2381  66.5384
    66.7949  66.9737  67.1167  67.1503  67.2387  67.6395  67.8913  68.0218
    68.1139  68.4150  68.5252  68.6087  69.7970  69.8393  70.3707  70.9320
    71.6850  71.9113  72.5577  72.6302  72.8190  73.0726  73.1965  74.5528
    74.6443  74.9088  75.1622  75.3168  75.4690  75.6505  75.8707  75.9432
    76.8237  76.9460  77.2642  77.6084  77.6752  78.1906  78.5023  79.3241
    79.7254  80.2163  80.4488  80.6993  81.0202  81.0331  81.2057  81.2425
    81.4561  81.5578  82.1743  82.3350  82.3367  82.3671  82.5071  82.5902
    83.3091  83.3392  83.7363  83.7847  84.4030  84.6321  84.9948  85.2470
    85.4947  85.5266  85.7120  85.8688  86.0554  86.2443  86.3002  86.8657
    87.5000  87.5734  87.8625  87.9506  88.1824  88.1895  88.4178  89.0859
    89.1871  89.2280  89.6163  89.6848  89.9191  90.2799  90.4019  90.5511
    90.5663  90.5773  90.8611  91.2099  91.2176  91.7190  91.8638  92.0002
    92.2827  92.3710  92.5231  92.6317  92.8595  92.9060  93.1009  93.4648
    93.9996  94.0207  94.3891  94.9002  95.3936  95.6198  96.2536  96.3463
    96.3868  96.3944  97.0238  97.2189  97.2881  97.6589  98.0587  98.3902
    98.4180  98.5001  98.6729  99.1161  99.2619  99.8221  99.8384 100.0172
   100.3638 100.4856 100.5434 100.7756 100.8860 101.3114 101.5505 101.6354
   102.3507 102.5252 102.8176 103.1265 104.2616 104.5529 105.1522 105.3297
   105.9411 106.1576 106.4290 107.0773 107.3983 107.5153 107.6915 107.7302
   108.4162 108.4324 108.7051 108.8595 108.8674 108.9143 110.0974 110.1031
   110.2430 110.2511 110.7853 111.0047

          k = 0.2500 0.5292 0.0000 (  8533 PWs)   bands (ev):

   -18.0891 -16.2253 -13.9523  -5.5828  -2.9102   6.7030   7.1247   8.1089
     8.6504   9.0670   9.2203   9.8137  10.9094  11.1933  11.5261  12.0454
    12.4573  12.5836  13.2103  13.4705  13.9007  14.2672  14.6887  14.8173
    14.9972  15.7942  15.9033  16.7277  16.9788  17.3735  18.1083  18.3180
    19.2746  19.4134  19.9614  20.5377  20.6758  21.6063  22.0501  22.8483
    23.5496  24.1108  24.8041  25.9248  26.5595  26.7223  28.0912  28.5744
    29.7004  30.6544  31.0099  31.3147  32.5397  33.7737  34.6043  34.8858
    35.9976  37.1388  37.2237  37.3109  38.7232  38.9166  39.1213  39.5767
    39.7799  40.5987  40.6620  41.5694  42.0336  42.3951  42.6850  42.7042
    43.4178  43.8605  44.3384  44.4634  44.5614  45.2167  45.4032  45.9349
    46.4226  46.8201  47.1542  47.6120  48.0032  48.4309  49.0004  49.2961
    49.8913  49.9970  50.0200  50.4607  50.7053  51.0730  51.4186  51.7014
    51.7095  52.5300  52.8676  53.0965  53.6119  53.7760  54.5169  54.8190
    55.1692  55.4222  55.6552  56.1369  56.1526  57.2107  57.3691  57.8396
    58.2851  58.7066  58.9789  59.3984  60.7444  61.0039  61.0097  61.2697
    61.4137  62.4163  62.5039  62.8376  63.5496  63.6230  65.2124  65.6060
    65.9619  66.1556  66.4094  66.8269  66.9431  67.3944  67.9277  68.3009
    68.6812  69.4519  69.9567  69.9679  70.2886  70.7658  70.8206  71.1218
    71.6684  72.0840  72.2076  72.3713  72.4132  72.7544  73.0474  73.0648
    73.2446  73.3865  73.5245  73.8314  74.2540  74.3562  74.4517  74.7831
    74.8259  75.0056  75.4588  75.5502  75.8690  76.2268  76.5160  76.9368
    77.2946  77.6170  77.6655  78.3065  78.5141  78.6391  78.9069  78.9299
    79.2173  79.3011  79.9389  80.0159  80.1186  80.3237  80.5092  80.6377
    81.0406  81.2510  81.2866  81.5245  81.6926  81.9317  82.2111  82.6334
    82.7332  82.8619  83.0462  83.2586  83.3161  83.7062  83.8937  84.1806
    84.2381  84.3743  84.7007  85.0587  85.0948  85.3066  85.4339  85.4957
    85.8154  85.9960  86.0691  86.3450  86.5668  86.7010  86.7536  87.2779
    87.3711  87.4800  87.5580  88.0117  88.0629  88.3170  88.7264  89.2306
    89.3083  89.5856  89.9945  90.0770  90.3378  90.3705  90.7080  90.8890
    91.3339  91.3583  91.5584  91.5714  91.8979  92.2289  92.2784  92.8907
    92.9843  93.1813  93.6034  93.7249  93.7327  94.2289  94.3080  94.6938
    95.2398  95.2598  95.8660  96.3507  96.4003  96.5537  96.7363  96.9217
    97.1591  97.2481  97.3767  97.7512  98.1462  98.8288  99.3611  99.3714
    99.7626 100.2068 100.4624 100.5021 100.6982 101.5913 101.6241 101.8733
   102.2182 102.3308 102.5619 102.8730 102.9198 103.5150 103.7542 104.4711
   104.6021 104.6943 105.0420 105.1590 105.3943 105.6880 106.0615 106.6988
   107.3494 107.4160 107.6473 108.1276 108.2936 108.3818 108.6550 109.3755
   109.9249 110.0192 110.5600 110.5914

          k = 0.3333 0.5774 0.0000 (  8526 PWs)   bands (ev):

   -16.8644 -16.8644 -14.8607  -4.2175  -4.2175   6.4522   8.7325   8.7325
     9.3158  10.6828  10.6828  11.1993  11.1993  11.3202  11.5327  12.0884
    12.0884  12.1865  12.1865  12.7749  12.9501  14.0025  14.0025  14.3313
    14.3313  14.8871  15.2936  16.5652  16.5652  17.3063  17.3889  17.3889
    18.6689  19.8208  19.8208  20.3798  20.6680  21.2066  21.2066  22.8115
    23.6818  23.6818  24.1364  25.6946  25.6946  27.6703  28.1827  28.1827
    28.5990  30.5566  30.5566  33.1716  33.4063  33.4063  33.8284  34.6048
    34.6048  37.1471  38.7152  38.7152  39.1497  39.1497  39.7751  40.0395
    40.9321  40.9321  42.8120  43.7718  43.7718  44.1321  44.1321  44.3064
    44.7956  44.7956  44.8009  45.1904  45.1904  45.6393  45.8361  45.8361
    46.3316  46.4797  46.4797  46.9238  47.1373  47.3624  47.3624  47.9100
    47.9100  48.2405  49.3583  49.6406  49.6406  50.6504  50.6504  51.4731
    52.3444  52.4849  52.4849  52.6671  52.6671  52.9152  54.0590  54.0590
    54.6495  55.2496  55.2496  55.3197  55.7695  56.0175  56.0175  56.6458
    58.3189  58.3189  58.8542  58.8542  60.4079  60.9347  61.4307  61.4307
    61.7905  61.7905  63.3363  63.3363  63.4085  63.5302  64.6043  64.6043
    66.0983  66.3715  66.5106  66.8693  66.8693  67.4005  67.4005  70.3454
    70.3454  71.7395  71.7395  71.7584  71.8624  72.0776  72.1796  72.1796
    72.6829  72.6829  72.7476  72.7476  73.2691  73.3401  74.3950  75.6012
    75.6012  76.3525  76.6203  76.6203  77.0095  77.0095  77.2609  77.4962
    77.4962  77.5487  77.7689  77.8567  77.8567  78.0611  78.0790  78.0790
    78.1359  78.1359  78.6068  78.8672  78.8672  78.9522  79.1048  79.1048
    79.1473  79.2012  79.2012  79.3659  79.4809  79.9380  79.9380  79.9894
    80.3879  80.3879  80.7325  80.7325  80.9945  81.2345  81.2345  81.4674
    81.7103  81.7103  81.8777  82.1217  82.1217  82.4538  82.4538  82.4859
    82.9921  83.0292  83.0292  83.0945  84.1576  84.1576  84.2343  84.7542
    84.7542  84.8594  85.1005  85.3219  85.3219  86.0164  86.2458  86.2458
    86.5027  86.5027  86.9208  87.3785  87.4043  87.4043  88.2709  88.4124
    88.4124  88.8208  88.8208  88.8818  89.0097  89.5041  89.5041  89.8730
    90.3119  90.3119  91.1783  91.1783  93.0423  93.0423  93.0736  93.1258
    93.1850  93.2235  93.2235  93.3671  93.3671  93.6052  93.8366  93.8366
    94.0012  94.5910  94.7955  94.7955  95.4740  95.5618  95.5618  95.8494
    95.8494  96.1077  97.8968  98.4834  98.4834  98.6405  98.8524  98.8524
    99.2921  99.2921  99.3719  99.5177 100.2153 100.2153 101.7800 102.0115
   102.1912 102.1912 102.2231 102.2231 104.5100 104.5100 104.8088 104.8255
   104.8255 104.9551 105.5699 105.5699 105.6047 105.7072 105.8912 105.9111
   105.9111 105.9762 105.9762 106.0845 106.2933 106.5052 106.5052 107.4657
   107.5442 107.5442 111.1037 111.1037

     the Fermi energy is    -4.2173 ev

!    total energy              =     -24.09508632 Ry
     estimated scf accuracy    <          1.2E-09 Ry
     smearing contrib. (-TS)   =      -0.00000091 Ry
     internal energy E=F+TS    =     -24.09508541 Ry

     The total energy is F=E-TS. E is the sum of the following terms:
     one-electron contribution =    -359.31965158 Ry
     hartree contribution      =     180.41802302 Ry
     xc contribution           =      -8.58982045 Ry
     ewald contribution        =     163.39636361 Ry

     convergence has been achieved in   7 iterations

     Writing all to output data dir ./outdir/graphene.save/

     init_run     :     84.99s CPU     16.92s WALL (       1 calls)
     electrons    :   1856.57s CPU    308.85s WALL (       1 calls)

     Called by init_run:
     wfcinit      :     81.53s CPU     15.65s WALL (       1 calls)
     potinit      :      1.48s CPU      0.43s WALL (       1 calls)
     hinit0       :      1.90s CPU      0.75s WALL (       1 calls)

     Called by electrons:
     c_bands      :   1658.68s CPU    275.30s WALL (       7 calls)
     sum_band     :    193.79s CPU     32.84s WALL (       7 calls)
     v_of_rho     :      3.61s CPU      0.64s WALL (       8 calls)
     mix_rho      :      0.45s CPU      0.07s WALL (       7 calls)

     Called by c_bands:
     init_us_2    :      1.37s CPU      0.27s WALL (     285 calls)
     init_us_2:cp :      1.37s CPU      0.27s WALL (     285 calls)
     cegterg      :   1653.25s CPU    273.87s WALL (     133 calls)

     Called by *egterg:
     cdiaghg      :    195.43s CPU     46.47s WALL (     561 calls)
     h_psi        :   1176.04s CPU    185.64s WALL (     580 calls)
     g_psi        :      3.98s CPU      0.63s WALL (     428 calls)

     Called by h_psi:
     h_psi:calbec :     12.76s CPU      1.23s WALL (     580 calls)
     vloc_psi     :   1138.64s CPU    181.54s WALL (     580 calls)
     add_vuspsi   :     12.93s CPU      1.19s WALL (     580 calls)

     General routines
     calbec       :     12.75s CPU      1.22s WALL (     580 calls)
     fft          :      2.57s CPU      0.79s WALL (      94 calls)
     ffts         :      0.84s CPU      0.32s WALL (      15 calls)
     fftw         :   1280.31s CPU    206.06s WALL (  243432 calls)
     interpolate  :      1.01s CPU      0.34s WALL (       8 calls)

     Parallel routines

     PWSCF        :  32m22.89s CPU   5m26.39s WALL


   This run was terminated on:  11:11: 9  25Aug2022            

=------------------------------------------------------------------------------=
   JOB DONE.
=------------------------------------------------------------------------------=
