
     Program BANDS v.7.1 starts on 11Dec2022 at  8:28:23 
        Git branch: all_p_qe-7.1
        Last git commit: 64b50ae7008d8f92f2d90b8cd0971bd852daf481
        Last git commit date: Tue Sep 27 11:29:25 2022 -0300
        Last git commit subject: fix: write p instead of |p|^2

     This program is part of the open-source Quantum ESPRESSO suite
     for quantum simulation of materials; please cite
         "P. Giannozzi et al., J. Phys.:Condens. Matter 21 395502 (2009);
         "P. Giannozzi et al., J. Phys.:Condens. Matter 29 465901 (2017);
         "P. Giannozzi et al., J. Chem. Phys. 152 154105 (2020);
          URL http://www.quantum-espresso.org", 
     in publications or presentations arising from this work. More details at
     http://www.quantum-espresso.org/quote

     Parallel version (MPI), running on     1 processors

     MPI processes distributed on     1 nodes
     510 MiB available memory on the printing compute node when the environment starts


     Reading xml data from directory:

     ./outdir/SnTe.save/

     IMPORTANT: XC functional enforced from input :
     Exchange-correlation= PBE
                           (   1   4   3   4   0   0   0)
     Any further DFT definition will be discarded
     Please, verify this is what you really want


     G-vector sticks info
     --------------------
     sticks:   dense  smooth     PW     G-vecs:    dense   smooth      PW
     Sum        2017    2017    559                59679    59679    8801

     Using Slab Decomposition

     Reading collected, re-writing distributed wavefunctions
     high-symmetry point:  0.0000 0.0000 0.0000   x coordinate   0.0000
     high-symmetry point:  0.5000 0.5000 0.5000   x coordinate   0.8660
     high-symmetry point:  0.5000 1.0000 0.0000   x coordinate   1.5731

     Plottable bands (eV) written to file bands.gnu
     Bands written to file bands

     BANDS        :   3m34.91s CPU   5m12.93s WALL


   This run was terminated on:   8:33:36  11Dec2022            

=------------------------------------------------------------------------------=
   JOB DONE.
=------------------------------------------------------------------------------=
