
     Program PWSCF v.7.1 starts on 10Dec2022 at 15:30: 3 
        Git branch: all_p_qe-7.1
        Last git commit: 64b50ae7008d8f92f2d90b8cd0971bd852daf481
        Last git commit date: Tue Sep 27 11:29:25 2022 -0300
        Last git commit subject: fix: write p instead of |p|^2

     This program is part of the open-source Quantum ESPRESSO suite
     for quantum simulation of materials; please cite
         "P. Giannozzi et al., J. Phys.:Condens. Matter 21 395502 (2009);
         "P. Giannozzi et al., J. Phys.:Condens. Matter 29 465901 (2017);
         "P. Giannozzi et al., J. Chem. Phys. 152 154105 (2020);
          URL http://www.quantum-espresso.org", 
     in publications or presentations arising from this work. More details at
     http://www.quantum-espresso.org/quote

     Parallel version (MPI), running on     1 processors

     MPI processes distributed on     1 nodes
     30371 MiB available memory on the printing compute node when the environment starts

     Reading input from scf.in

     Current dimensions of program PWSCF are:
     Max number of different atomic species (ntypx) = 10
     Max number of k-points (npk) =  40000
     Max angular momentum in pseudopotentials (lmaxx) =  4

     Subspace diagonalization in iterative solution of the eigenvalue problem:
     a serial algorithm will be used


     G-vector sticks info
     --------------------
     sticks:   dense  smooth     PW     G-vecs:    dense   smooth      PW
     Sum        2017    2017    583                59679    59679    9185

     Using Slab Decomposition



     bravais-lattice index     =            2
     lattice parameter (alat)  =      12.0942  a.u.
     unit-cell volume          =     442.2588 (a.u.)^3
     number of atoms/cell      =            2
     number of atomic types    =            2
     number of electrons       =        30.00
     number of Kohn-Sham states=          500
     kinetic-energy cutoff     =     100.0000  Ry
     charge density cutoff     =     400.0000  Ry
     scf convergence threshold =      1.0E-08
     mixing beta               =       0.2500
     number of iterations used =            8  plain     mixing
     Exchange-correlation= PBE
                           (   1   4   3   4   0   0   0)
     Non magnetic calculation with spin-orbit


     celldm(1)=  12.094246  celldm(2)=   0.000000  celldm(3)=   0.000000
     celldm(4)=   0.000000  celldm(5)=   0.000000  celldm(6)=   0.000000

     crystal axes: (cart. coord. in units of alat)
               a(1) = (  -0.500000   0.000000   0.500000 )  
               a(2) = (   0.000000   0.500000   0.500000 )  
               a(3) = (  -0.500000   0.500000   0.000000 )  

     reciprocal axes: (cart. coord. in units 2 pi/alat)
               b(1) = ( -1.000000 -1.000000  1.000000 )  
               b(2) = (  1.000000  1.000000  1.000000 )  
               b(3) = ( -1.000000  1.000000 -1.000000 )  


     PseudoPot. # 1 for Sn read from file:
     ../../pseudos/ONCVPSP/abinit/Sn_ONCV_PBE_fr.upf
     MD5 check sum: ba7bc4f7928d73467bcc44227760fff2
     Pseudo is Norm-conserving + core correction, Zval = 14.0
     Generated using ONCVPSP code by D. R. Hamann
     Using radial grid of 1668 points, 10 beta functions with: 
                l(1) =   0
                l(2) =   0
                l(3) =   1
                l(4) =   1
                l(5) =   1
                l(6) =   1
                l(7) =   2
                l(8) =   2
                l(9) =   2
               l(10) =   2

     PseudoPot. # 2 for Te read from file:
     ../../pseudos/ONCVPSP/abinit/Te_ONCV_PBE_fr.upf
     MD5 check sum: 693c81a67163be2ee11a6613872c3f6a
     Pseudo is Norm-conserving + core correction, Zval = 16.0
     Generated using ONCVPSP code by D. R. Hamann
     Using radial grid of 1324 points, 10 beta functions with: 
                l(1) =   0
                l(2) =   0
                l(3) =   1
                l(4) =   1
                l(5) =   1
                l(6) =   1
                l(7) =   2
                l(8) =   2
                l(9) =   2
               l(10) =   2

     atomic species   valence    mass     pseudopotential
        Sn            14.00   118.71000     Sn( 1.00)
        Te            16.00   127.60000     Te( 1.00)

     48 Sym. Ops., with inversion, found



   Cartesian axes

     site n.     atom                  positions (alat units)
         1           Sn  tau(   1) = (   0.0000000   0.0000000   0.0000000  )
         2           Te  tau(   2) = (  -0.5000000   0.5000000   0.5000000  )

     number of k points=    29
                       cart. coord. in units 2pi/alat
        k(    1) = (   0.0000000   0.0000000   0.0000000), wk =   0.0019531
        k(    2) = (  -0.1250000   0.1250000  -0.1250000), wk =   0.0156250
        k(    3) = (  -0.2500000   0.2500000  -0.2500000), wk =   0.0156250
        k(    4) = (  -0.3750000   0.3750000  -0.3750000), wk =   0.0156250
        k(    5) = (   0.5000000  -0.5000000   0.5000000), wk =   0.0078125
        k(    6) = (   0.0000000   0.2500000   0.0000000), wk =   0.0117188
        k(    7) = (  -0.1250000   0.3750000  -0.1250000), wk =   0.0468750
        k(    8) = (  -0.2500000   0.5000000  -0.2500000), wk =   0.0468750
        k(    9) = (   0.6250000  -0.3750000   0.6250000), wk =   0.0468750
        k(   10) = (   0.5000000  -0.2500000   0.5000000), wk =   0.0468750
        k(   11) = (   0.3750000  -0.1250000   0.3750000), wk =   0.0468750
        k(   12) = (   0.2500000   0.0000000   0.2500000), wk =   0.0234375
        k(   13) = (   0.0000000   0.5000000   0.0000000), wk =   0.0117188
        k(   14) = (  -0.1250000   0.6250000  -0.1250000), wk =   0.0468750
        k(   15) = (   0.7500000  -0.2500000   0.7500000), wk =   0.0468750
        k(   16) = (   0.6250000  -0.1250000   0.6250000), wk =   0.0468750
        k(   17) = (   0.5000000   0.0000000   0.5000000), wk =   0.0234375
        k(   18) = (   0.0000000   0.7500000   0.0000000), wk =   0.0117188
        k(   19) = (   0.8750000  -0.1250000   0.8750000), wk =   0.0468750
        k(   20) = (   0.7500000   0.0000000   0.7500000), wk =   0.0234375
        k(   21) = (   0.0000000  -1.0000000   0.0000000), wk =   0.0058594
        k(   22) = (  -0.2500000   0.5000000   0.0000000), wk =   0.0468750
        k(   23) = (   0.6250000  -0.3750000   0.8750000), wk =   0.0937500
        k(   24) = (   0.5000000  -0.2500000   0.7500000), wk =   0.0468750
        k(   25) = (   0.7500000  -0.2500000   1.0000000), wk =   0.0468750
        k(   26) = (   0.6250000  -0.1250000   0.8750000), wk =   0.0937500
        k(   27) = (   0.5000000   0.0000000   0.7500000), wk =   0.0468750
        k(   28) = (  -0.2500000  -1.0000000   0.0000000), wk =   0.0234375
        k(   29) = (  -0.5000000  -1.0000000   0.0000000), wk =   0.0117188

     Dense  grid:    59679 G-vectors     FFT dimensions: (  60,  60,  60)

     Estimated max dynamical RAM per process >       3.96 GB

     Initial potential from superposition of free atoms

     starting charge      29.9982, renormalised to      30.0000
     Starting wfcs are   36 randomized atomic wfcs +  464 random wfcs

     total cpu time spent up to now is       99.8 secs

     Self-consistent Calculation

     iteration #  1     ecut=   100.00 Ry     beta= 0.25
     Davidson diagonalization with overlap
     ethr =  1.00E-02,  avg # of iterations =  7.1

     Threshold (ethr) on eigenvalues was too large:
     Diagonalizing with lowered threshold

     Davidson diagonalization with overlap
     ethr =  6.73E-05,  avg # of iterations =  1.6

     total cpu time spent up to now is      856.1 secs

     total energy              =    -367.20090016 Ry
     estimated scf accuracy    <       0.02018153 Ry

     iteration #  2     ecut=   100.00 Ry     beta= 0.25
     Davidson diagonalization with overlap
     ethr =  6.73E-05,  avg # of iterations =  1.0

     total cpu time spent up to now is     1078.6 secs

     total energy              =    -367.20099074 Ry
     estimated scf accuracy    <       0.00476337 Ry

     iteration #  3     ecut=   100.00 Ry     beta= 0.25
     Davidson diagonalization with overlap
     ethr =  1.59E-05,  avg # of iterations =  3.1

     total cpu time spent up to now is     1322.2 secs

     total energy              =    -367.20166418 Ry
     estimated scf accuracy    <       0.00070737 Ry

     iteration #  4     ecut=   100.00 Ry     beta= 0.25
     Davidson diagonalization with overlap
     ethr =  2.36E-06,  avg # of iterations =  4.4

     total cpu time spent up to now is     1574.3 secs

     total energy              =    -367.20172036 Ry
     estimated scf accuracy    <       0.00002971 Ry

     iteration #  5     ecut=   100.00 Ry     beta= 0.25
     Davidson diagonalization with overlap
     ethr =  9.90E-08,  avg # of iterations =  1.2

     total cpu time spent up to now is     1798.7 secs

     total energy              =    -367.20172168 Ry
     estimated scf accuracy    <       0.00001028 Ry

     iteration #  6     ecut=   100.00 Ry     beta= 0.25
     Davidson diagonalization with overlap
     ethr =  3.43E-08,  avg # of iterations =  1.6

     total cpu time spent up to now is     2026.7 secs

     total energy              =    -367.20172307 Ry
     estimated scf accuracy    <       0.00000028 Ry

     iteration #  7     ecut=   100.00 Ry     beta= 0.25
     Davidson diagonalization with overlap
     ethr =  9.21E-10,  avg # of iterations =  1.0

     total cpu time spent up to now is     2246.9 secs

     total energy              =    -367.20172313 Ry
     estimated scf accuracy    <       0.00000001 Ry

     iteration #  8     ecut=   100.00 Ry     beta= 0.25
     Davidson diagonalization with overlap
     ethr =  3.84E-11,  avg # of iterations =  1.0

     total cpu time spent up to now is     2466.6 secs

     End of self-consistent calculation

          k = 0.0000 0.0000 0.0000 (  7391 PWs)   bands (ev):

   -28.5365 -28.5365 -28.5365 -28.5365 -27.0718 -27.0718 -27.0718 -27.0718
   -27.0705 -27.0705 -13.2241 -13.2241 -13.2241 -13.2241 -12.1859 -12.1859
   -12.1859 -12.1859 -12.1850 -12.1850  -3.1976  -3.1976   4.4165   4.4165
     6.6841   6.6841   7.5115   7.5115   7.5115   7.5115  11.9629  11.9629
    12.8049  12.8049  12.8049  12.8049  14.1062  14.1062  14.1062  14.1062
    14.1610  14.1610  16.1554  16.1554  16.1554  16.1554  16.3095  16.3095
    16.9828  16.9828  28.3784  28.3784  28.5482  28.5482  28.5482  28.5482
    28.5482  28.5482  29.0834  29.0834  29.0834  29.0834  29.6627  29.6627
    29.6627  29.6627  29.7990  29.7990  31.2134  31.2134  31.2134  31.2134
    34.7540  34.7540  35.1609  35.1609  35.1617  35.1617  35.1617  35.1617
    37.8766  37.8766  37.8766  37.8766  37.8766  37.8766  38.2002  38.2002
    38.2002  38.2002  38.8968  38.8968  39.8773  39.8773  40.6187  40.6187
    40.8683  40.8683  40.8683  40.8683  40.9104  40.9104  40.9104  40.9104
    40.9104  40.9104  41.5373  41.5373  41.5373  41.5373  41.6639  41.6639
    44.1858  44.1858  44.2528  44.2528  44.2528  44.2528  44.2583  44.2583
    44.2725  44.2725  44.2725  44.2725  45.0843  45.0843  45.0843  45.0843
    45.3445  45.3445  45.3445  45.3445  45.4163  45.4163  47.3161  47.3161
    49.6654  49.6654  55.1054  55.1054  55.6129  55.6129  55.6129  55.6129
    59.4466  59.4466  59.4466  59.4466  61.0526  61.0526  61.0526  61.0526
    61.0526  61.0526  62.5528  62.5528  63.0727  63.0727  63.0727  63.0727
    63.0727  63.0727  63.7341  63.7341  66.1504  66.1504  66.1504  66.1504
    67.5143  67.5143  67.9921  67.9921  67.9921  67.9921  68.7206  68.7206
    68.7206  68.7206  68.7525  68.7525  69.0575  69.0575  69.1636  69.1636
    69.1636  69.1636  69.2258  69.2258  69.8370  69.8370  69.8370  69.8370
    69.8370  69.8370  71.2197  71.2197  71.3301  71.3301  71.3301  71.3301
    71.5053  71.5053  71.5053  71.5053  71.6533  71.6533  72.5415  72.5415
    72.5415  72.5415  72.5415  72.5415  72.5848  72.5848  72.5848  72.5848
    72.7125  72.7125  72.7125  72.7125  74.1097  74.1097  74.1097  74.1097
    74.1097  74.1097  74.3227  74.3227  74.3227  74.3227  74.4341  74.4341
    75.1765  75.1765  75.8051  75.8051  76.5033  76.5033  76.5033  76.5033
    77.0974  77.0974  77.2953  77.2953  77.9771  77.9771  77.9771  77.9771
    82.7757  82.7757  85.7576  85.7576  85.7576  85.7576  85.7930  85.7930
    86.0718  86.0718  86.2268  86.2268  86.5919  86.5919  86.6177  86.6177
    86.6177  86.6177  86.8045  86.8045  86.8045  86.8045  86.9194  86.9194
    86.9194  86.9194  87.4178  87.4178  87.4178  87.4178  87.4178  87.4178
    87.6419  87.6419  87.6419  87.6419  87.6419  87.6419  90.8355  90.8355
    90.8355  90.8355  91.1131  91.1131  91.1131  91.1131  91.2267  91.2267
    92.6572  92.6572  93.0418  93.0418  93.5718  93.5718  93.5718  93.5718
    93.5718  93.5718  94.0710  94.0710  94.0710  94.0710  94.6261  94.6261
    94.8111  94.8111  94.8111  94.8111  94.8111  94.8111  97.0439  97.0439
    97.0439  97.0439  97.0446  97.0446  97.6378  97.6378  97.6465  97.6465
    97.6465  97.6465  98.6241  98.6241  98.6241  98.6241 102.1331 102.1331
   102.1331 102.1331 102.2246 102.2246 102.6533 102.6533 102.6533 102.6533
   102.7896 102.7896 102.7896 102.7896 102.7899 102.7899 102.9866 102.9866
   103.6786 103.6786 104.4667 104.4667 104.4667 104.4667 106.3123 106.3123
   108.0308 108.0308 108.0308 108.0308 108.0308 108.0308 111.6684 111.6684
   111.6684 111.6684 112.9160 112.9160 112.9160 112.9160 112.9160 112.9160
   113.0788 113.0788 113.6053 113.6053 113.6587 113.6587 113.6587 113.6587
   116.8240 116.8240 116.8240 116.8240 116.8749 116.8749 117.7882 117.7882
   118.9770 118.9770 120.0279 120.0279 120.0279 120.0279 120.0306 120.0306
   120.7045 120.7045 120.7045 120.7045 121.3990 121.3990 121.3990 121.3990
   121.3990 121.3990 121.5159 121.5159 121.5676 121.5676 121.5676 121.5676
   122.3919 122.3919 123.7985 123.7985 123.7985 123.7985 123.8200 123.8200
   124.0939 124.0939 124.0939 124.0939 124.0939 124.0939 125.4624 125.4624
   125.8106 125.8106 127.2895 127.2895 127.2895 127.2895 127.5771 127.5771
   127.5771 127.5771 127.9804 127.9804 128.7911 128.7911 128.7911 128.7911
   128.8320 128.8320 129.1047 129.1047 129.1047 129.1047 129.3821 129.3821
   129.3821 129.3821 129.3821 129.3821 130.1752 130.1752 130.1752 130.1752
   130.1838 130.1838 130.3084 130.3084 130.3084 130.3084 130.3714 130.3714
   130.3714 130.3714 130.3714 130.3714 130.6086 130.6086 130.6086 130.6086
   130.6086 130.6086 130.6392 130.6392 130.7295 130.7295 130.7298 130.7298
   131.0596 131.0596 131.0596 131.0596 131.0596 131.0597 131.1111 131.1111
   131.1111 131.1111 131.3024 131.3024

          k =-0.1250 0.1250-0.1250 (  7501 PWs)   bands (ev):

   -28.5365 -28.5365 -28.5364 -28.5364 -27.0718 -27.0718 -27.0717 -27.0717
   -27.0704 -27.0704 -13.2243 -13.2243 -13.2238 -13.2238 -12.1865 -12.1865
   -12.1856 -12.1856 -12.1845 -12.1845  -3.0754  -3.0754   3.8147   3.8147
     6.8279   6.8279   7.5306   7.5306   7.8022   7.8022  11.4202  11.4202
    12.1255  12.1255  12.1280  12.1280  14.0762  14.0762  14.4280  14.4280
    14.4549  14.4549  17.0402  17.0402  17.1262  17.1262  17.3330  17.3330
    17.8052  17.8052  26.0860  26.0860  26.2133  26.2133  26.4696  26.4696
    28.7143  28.7143  28.7934  28.7934  29.1150  29.1150  30.3675  30.3675
    30.4690  30.4690  31.3517  31.3517  33.1866  33.1866  33.3587  33.3587
    33.3943  33.3943  33.5504  33.5504  34.9699  34.9699  36.2243  36.2243
    36.4893  36.4893  36.8537  36.8537  36.8554  36.8554  37.0148  37.0148
    37.6750  37.6750  37.8628  37.8628  38.1894  38.1894  39.7153  39.7153
    40.2253  40.2253  40.3824  40.3824  41.5660  41.5660  42.2420  42.2420
    42.2468  42.2468  42.5363  42.5363  42.5510  42.5510  42.6157  42.6157
    43.2070  43.2070  43.3381  43.3381  43.4820  43.4820  43.6372  43.6372
    43.7840  43.7840  45.9317  45.9317  46.5182  46.5182  46.5194  46.5194
    46.9694  46.9694  48.0076  48.0076  48.0083  48.0083  49.7809  49.7809
    50.9540  50.9540  53.9072  53.9072  54.2274  54.2274  54.7546  54.7546
    59.0989  59.0989  59.1203  59.1203  60.2724  60.2724  60.2971  60.2971
    60.9867  60.9867  62.2415  62.2415  62.3284  62.3284  62.3590  62.3590
    62.3624  62.3624  63.5163  63.5163  65.2014  65.2014  65.6711  65.6711
    65.7389  65.7389  66.1080  66.1080  66.1380  66.1380  66.6208  66.6208
    66.6335  66.6335  67.4713  67.4713  68.3284  68.3284  68.4232  68.4232
    68.6181  68.6181  69.0643  69.0643  69.2265  69.2265  70.8468  70.8468
    70.8716  70.8716  71.1244  71.1244  71.3039  71.3039  71.3079  71.3079
    71.6492  71.6492  71.6507  71.6507  72.0671  72.0671  72.0769  72.0769
    72.5897  72.5897  72.6975  72.6975  72.8258  72.8258  72.8379  72.8379
    72.8719  72.8719  73.9250  73.9250  74.0346  74.0346  74.6215  74.6215
    75.1389  75.1389  75.5329  75.5329  75.5425  75.5425  77.5296  77.5296
    77.5360  77.5360  77.7375  77.7375  77.7473  77.7473  78.5546  78.5546
    78.8592  78.8592  79.3655  79.3655  79.5840  79.5840  79.7411  79.7411
    80.9433  80.9433  80.9820  80.9820  84.1669  84.1669  84.3052  84.3052
    84.3635  84.3635  84.5407  84.5407  84.7649  84.7649  85.4090  85.4090
    85.6589  85.6589  85.8881  85.8881  86.0790  86.0790  86.3589  86.3589
    86.4343  86.4343  87.8410  87.8410  88.1968  88.1968  88.2236  88.2236
    89.5485  89.5485  89.7470  89.7470  89.8563  89.8563  89.9296  89.9296
    90.1335  90.1335  91.1990  91.1990  91.2087  91.2087  91.2875  91.2875
    92.4145  92.4145  92.4462  92.4462  92.8949  92.8949  93.0613  93.0613
    93.1316  93.1316  93.1582  93.1582  93.3775  93.3775  95.9454  95.9454
    96.3527  96.3527  96.7488  96.7488  96.9542  96.9542  97.0059  97.0059
    97.1586  97.1586  98.2456  98.2456  98.2493  98.2493  98.7010  98.7010
    98.7496  98.7496  98.9909  98.9909  99.1280  99.1280  99.1373  99.1373
   100.7452 100.7452 100.7650 100.7650 101.9563 101.9563 101.9838 101.9838
   103.0824 103.0824 104.8205 104.8205 104.8322 104.8322 105.8872 105.8872
   106.2765 106.2765 106.3379 106.3379 107.3116 107.3116 107.6019 107.6019
   107.6035 107.6035 108.1257 108.1257 108.1524 108.1524 110.5296 110.5296
   111.4802 111.4802 111.4990 111.4990 112.3231 112.3231 112.3281 112.3281
   112.3527 112.3527 113.2231 113.2231 114.7089 114.7089 114.7114 114.7114
   114.9543 114.9543 115.2262 115.2262 115.2468 115.2468 117.2545 117.2545
   117.5396 117.5396 117.5543 117.5543 117.7695 117.7695 118.5088 118.5088
   120.0504 120.0504 120.3717 120.3717 120.3786 120.3786 120.7579 120.7579
   120.9422 120.9422 120.9599 120.9599 121.6766 121.6766 121.6807 121.6807
   122.1889 122.1889 122.6975 122.6975 122.7051 122.7051 123.1176 123.1176
   123.1198 123.1198 123.1447 123.1447 124.1673 124.1673 124.1681 124.1681
   124.2762 124.2762 124.8736 124.8736 125.7329 125.7329 125.7434 125.7434
   126.3369 126.3369 126.5517 126.5517 126.6178 126.6178 127.1868 127.1868
   127.2246 127.2246 127.6232 127.6232 128.0555 128.0555 128.2241 128.2241
   128.2515 128.2515 128.4718 128.4718 128.5496 128.5496 128.5631 128.5631
   128.8031 128.8031 128.9714 128.9714 129.2720 129.2720 129.5988 129.5988
   129.7300 129.7300 130.0647 130.0647 130.5495 130.5495 130.5847 130.5847
   130.8639 130.8639 130.8787 130.8787 131.4509 131.4509 131.4732 131.4732
   132.2964 132.2964 132.3114 132.3114 132.3661 132.3661 132.6357 132.6357
   132.7564 132.7564 132.8302 132.8302

          k =-0.2500 0.2500-0.2500 (  7456 PWs)   bands (ev):

   -28.5364 -28.5364 -28.5363 -28.5363 -27.0718 -27.0718 -27.0715 -27.0715
   -27.0702 -27.0702 -13.2246 -13.2246 -13.2231 -13.2231 -12.1880 -12.1880
   -12.1848 -12.1848 -12.1831 -12.1831  -2.7337  -2.7337   2.6738   2.6738
     6.9880   6.9880   7.6044   7.6044   8.3477   8.3477  10.4640  10.4640
    11.0369  11.0369  11.0435  11.0435  14.4812  14.4812  15.3172  15.3172
    15.3209  15.3209  18.9111  18.9111  19.1276  19.1276  19.3077  19.3077
    19.7398  19.7398  23.3105  23.3105  23.3870  23.3870  23.9678  23.9678
    29.2110  29.2110  29.2988  29.2988  29.6410  29.6410  30.2743  30.2743
    30.4190  30.4190  30.9674  30.9674  31.0072  31.0072  32.2505  32.2505
    32.9492  32.9492  34.2992  34.2992  34.5043  34.5043  35.2353  35.2353
    35.3745  35.3745  35.4182  35.4182  35.6455  35.6455  35.8996  35.8996
    37.0151  37.0151  37.1072  37.1072  38.4648  38.4648  39.1218  39.1218
    40.8318  40.8318  40.9963  40.9963  41.0476  41.0476  41.5409  41.5409
    41.6185  41.6185  42.4227  42.4227  42.4831  42.4831  45.1340  45.1340
    45.2271  45.2271  45.2278  45.2278  45.5497  45.5497  46.1499  46.1499
    46.3871  46.3871  47.7763  47.7763  47.9585  47.9585  47.9899  47.9899
    49.2818  49.2818  52.0152  52.0152  52.0259  52.0259  52.1675  52.1675
    52.4000  52.4000  52.5034  52.5034  53.1832  53.1832  55.3413  55.3413
    55.3819  55.3819  55.8265  55.8265  58.7256  58.7256  58.7454  58.7454
    58.8598  58.8598  59.4262  59.4262  60.5021  60.5021  60.5303  60.5303
    61.5163  61.5163  61.7849  61.7849  62.0856  62.0856  62.1083  62.1083
    65.2418  65.2418  65.3875  65.3875  65.4172  65.4172  65.9565  65.9565
    66.0918  66.0918  66.3655  66.3655  66.4961  66.4961  67.0862  67.0862
    68.4013  68.4013  68.4344  68.4344  69.2312  69.2312  70.4173  70.4173
    70.4594  70.4594  70.7606  70.7606  70.9758  70.9758  70.9872  70.9872
    72.0960  72.0960  72.1189  72.1189  72.5839  72.5839  72.7466  72.7466
    72.7508  72.7508  73.1769  73.1769  73.5095  73.5095  74.0001  74.0001
    74.0992  74.0992  74.1010  74.1010  75.2188  75.2188  75.2540  75.2540
    76.0447  76.0447  76.1320  76.1320  76.9770  76.9770  77.0680  77.0680
    78.3689  78.3689  79.0167  79.0167  80.8255  80.8255  80.8297  80.8297
    81.1899  81.1899  81.9648  81.9648  82.3686  82.3686  82.4706  82.4706
    82.7050  82.7050  82.8300  82.8300  82.9735  82.9735  83.2723  83.2723
    83.3328  83.3328  83.3915  83.3915  84.2679  84.2679  84.2753  84.2753
    84.7784  84.7784  84.8246  84.8246  84.9215  84.9215  86.0343  86.0343
    86.0683  86.0683  86.5668  86.5668  87.6764  87.6764  88.4717  88.4717
    88.4880  88.4880  88.8633  88.8633  89.0141  89.0141  89.0666  89.0666
    90.0533  90.0533  90.1975  90.1975  90.2606  90.2606  91.1002  91.1002
    91.2880  91.2880  92.0627  92.0627  94.0547  94.0547  94.1983  94.1983
    95.1258  95.1258  95.2254  95.2254  95.2278  95.2278  95.2922  95.2922
    95.3599  95.3599  95.4213  95.4213  95.6440  95.6440  97.4962  97.4962
    97.7969  97.7969  98.5433  98.5433  99.9080  99.9080  99.9132  99.9132
   100.0693 100.0693 101.3840 101.3840 101.4144 101.4144 102.8253 102.8253
   102.8334 102.8334 103.1967 103.1967 103.2297 103.2297 103.4826 103.4826
   103.5175 103.5175 105.3952 105.3952 105.3997 105.3997 106.8369 106.8369
   107.0774 107.0774 107.2853 107.2853 107.9126 107.9126 108.4452 108.4452
   108.5757 108.5757 108.5911 108.5911 109.3582 109.3582 109.6291 109.6291
   111.0075 111.0075 111.0484 111.0484 111.9603 111.9603 112.1286 112.1286
   112.2096 112.2096 112.9027 112.9027 113.2122 113.2122 113.2125 113.2125
   113.2229 113.2229 113.7822 113.7822 113.7830 113.7830 114.4989 114.4989
   115.3340 115.3340 115.3611 115.3611 115.4813 115.4813 116.2334 116.2334
   116.2579 116.2579 116.8710 116.8710 116.8760 116.8760 117.9312 117.9312
   118.2400 118.2400 118.5963 118.5963 118.6538 118.6538 119.6478 119.6478
   120.7312 120.7312 120.8115 120.8115 120.8541 120.8541 122.7028 122.7028
   124.1367 124.1367 124.1516 124.1516 124.2474 124.2474 124.4550 124.4550
   124.4653 124.4653 124.8687 124.8687 124.9110 124.9110 125.0155 125.0155
   125.1072 125.1072 125.1116 125.1116 125.1241 125.1241 125.4757 125.4757
   125.7218 125.7218 125.7329 125.7329 125.9591 125.9591 126.0461 126.0461
   127.0082 127.0082 127.0570 127.0570 127.3544 127.3544 127.6918 127.6918
   127.8217 127.8217 127.8278 127.8278 128.3706 128.3706 128.3726 128.3726
   128.3977 128.3977 129.3488 129.3488 130.6996 130.6996 130.9447 130.9447
   131.7903 131.7903 131.8208 131.8208 132.2330 132.2330 132.4821 132.4821
   132.6701 132.6701 132.8588 132.8588 132.9444 132.9444 133.7268 133.7268
   134.0957 134.0958 134.2407 134.2407

          k =-0.3750 0.3750-0.3750 (  7462 PWs)   bands (ev):

   -28.5364 -28.5364 -28.5361 -28.5361 -27.0718 -27.0718 -27.0713 -27.0713
   -27.0701 -27.0701 -13.2250 -13.2250 -13.2224 -13.2224 -12.1895 -12.1895
   -12.1840 -12.1840 -12.1817 -12.1817  -2.2820  -2.2820   1.6318   1.6318
     7.1448   7.1448   7.7366   7.7366   8.8142   8.8142   9.6858   9.6858
    10.1224  10.1224  10.2007  10.2007  15.6296  15.6296  16.6795  16.6795
    16.7007  16.7007  19.3305  19.3305  20.5900  20.5900  20.6835  20.6835
    21.6117  21.6117  21.7303  21.7303  22.5139  22.5139  23.9443  23.9443
    27.1467  27.1467  27.3641  27.3641  29.2318  29.2318  30.0292  30.0292
    30.3517  30.3517  30.6044  30.6044  30.6690  30.6690  31.4576  31.4576
    31.5518  31.5518  32.7385  32.7385  32.7964  32.7964  33.7098  33.7098
    33.9776  33.9776  34.0545  34.0545  34.0892  34.0892  34.6985  34.6985
    38.1187  38.1187  39.0071  39.0071  40.4915  40.4915  40.5153  40.5153
    40.9185  40.9185  40.9398  40.9398  41.2708  41.2708  41.3287  41.3287
    43.6522  43.6522  43.7318  43.7318  44.0515  44.0515  46.3143  46.3143
    47.5375  47.5375  47.6734  47.6734  47.7872  47.7872  47.9500  47.9500
    48.4697  48.4697  48.8564  48.8564  48.8799  48.8799  48.9955  48.9955
    51.8709  51.8709  51.9146  51.9146  51.9206  51.9206  52.3991  52.3991
    52.5009  52.5009  52.6453  52.6453  53.0562  53.0562  55.6205  55.6205
    55.6568  55.6568  56.1278  56.1278  56.7706  56.7706  56.7723  56.7723
    57.0551  57.0551  57.0913  57.0913  57.5071  57.5071  58.5597  58.5597
    58.5868  58.5868  59.6804  59.6804  60.4185  60.4185  61.7696  61.7696
    62.1401  62.1401  64.3584  64.3584  66.2825  66.2825  66.3216  66.3216
    66.5550  66.5550  66.6784  66.6784  66.7888  66.7888  67.1283  67.1283
    67.8825  67.8825  67.9175  67.9175  68.6161  68.6161  68.6756  68.6756
    68.7616  68.7616  69.2672  69.2672  70.3210  70.3210  70.4812  70.4812
    71.2412  71.2412  71.2490  71.2490  71.4823  71.4823  72.7048  72.7048
    72.7234  72.7234  74.2667  74.2667  74.3628  74.3628  74.3822  74.3822
    74.7619  74.7619  76.2012  76.2012  76.2220  76.2220  76.3002  76.3002
    76.8750  76.8750  77.9673  77.9673  78.6593  78.6593  78.7313  78.7313
    78.7562  78.7562  79.2799  79.2799  79.3240  79.3240  79.5395  79.5395
    79.6157  79.6157  80.0280  80.0280  80.1560  80.1560  81.9501  81.9501
    82.0051  82.0051  82.4500  82.4500  82.5994  82.5994  83.4802  83.4802
    84.3506  84.3506  85.8394  85.8394  86.0808  86.0808  86.1751  86.1751
    86.1909  86.1909  86.3242  86.3242  86.3783  86.3783  87.6669  87.6669
    87.8630  87.8630  88.0408  88.0408  88.0453  88.0453  88.2585  88.2585
    89.5424  89.5424  89.5476  89.5476  89.6365  89.6365  90.6954  90.6954
    90.7764  90.7764  90.7970  90.7970  91.4252  91.4252  91.4548  91.4548
    91.4651  91.4651  92.3219  92.3219  92.8448  92.8448  92.8523  92.8523
    93.8026  93.8026  94.1165  94.1165  94.4295  94.4295  94.4855  94.4855
    95.3079  95.3079  95.8201  95.8201  97.4955  97.4955  99.9090  99.9090
   100.1089 100.1089 100.1187 100.1187 100.4490 100.4490 100.4571 100.4571
   101.1032 101.1032 101.6871 101.6871 101.8949 101.8949 101.9020 101.9020
   102.1005 102.1005 102.9731 102.9731 103.1039 103.1039 104.4951 104.4951
   105.1341 105.1341 105.1627 105.1627 105.7645 105.7645 105.7732 105.7732
   106.0171 106.0171 107.0491 107.0491 108.2803 108.2803 108.2867 108.2867
   109.1731 109.1731 109.1787 109.1787 109.3233 109.3233 109.9890 109.9890
   110.0044 110.0044 110.4295 110.4295 110.4663 110.4663 110.5435 110.5435
   110.6196 110.6196 111.0904 111.0904 111.2929 111.2929 111.3043 111.3043
   111.6587 111.6587 111.6634 111.6634 114.0199 114.0199 114.5073 114.5073
   114.9999 114.9999 115.0747 115.0747 115.1926 115.1926 116.1541 116.1541
   116.2332 116.2332 116.9925 116.9925 117.5299 117.5299 118.3758 118.3758
   118.4680 118.4680 119.4593 119.4593 119.4686 119.4686 119.5332 119.5332
   119.5499 119.5499 120.2352 120.2352 120.2901 120.2901 120.5821 120.5821
   121.0889 121.0889 121.1137 121.1137 121.4390 121.4390 122.4211 122.4211
   122.4708 122.4708 122.4817 122.4817 123.2610 123.2610 123.4427 123.4427
   123.4640 123.4640 123.4828 123.4828 124.7856 124.7856 125.6945 125.6945
   125.7780 125.7780 125.9096 125.9096 126.3108 126.3108 127.0088 127.0088
   127.0255 127.0255 127.2306 127.2306 127.2523 127.2523 127.7892 127.7892
   128.1570 128.1570 128.3721 128.3721 128.6882 128.6882 128.7110 128.7110
   128.8483 128.8483 129.4482 129.4482 129.5100 129.5100 129.5922 129.5922
   131.1605 131.1605 131.3708 131.3708 131.7178 131.7178 132.1905 132.1905
   132.2519 132.2519 132.5209 132.5209 133.3850 133.3850 133.3916 133.3916
   133.5652 133.5652 133.9759 133.9789

          k = 0.5000-0.5000 0.5000 (  7456 PWs)   bands (ev):

   -28.5364 -28.5364 -28.5361 -28.5361 -27.0718 -27.0718 -27.0712 -27.0712
   -27.0700 -27.0700 -13.2251 -13.2251 -13.2221 -13.2221 -12.1901 -12.1901
   -12.1836 -12.1836 -12.1811 -12.1811  -2.0324  -2.0324   1.1710   1.1710
     7.2307   7.2307   7.8213   7.8213   9.1870   9.1870   9.3124   9.3124
     9.6345   9.6345   9.8662   9.8662  16.9561  16.9561  17.9073  17.9073
    18.2492  18.2492  18.2613  18.2613  18.7778  18.7778  18.8314  18.8314
    23.9233  23.9233  24.1205  24.1205  24.4715  24.4715  24.6696  24.6696
    25.4574  25.4574  25.9551  25.9551  26.0950  26.0950  27.7029  27.7029
    30.9307  30.9307  31.1692  31.1692  31.5071  31.5071  31.5165  31.5165
    31.9358  31.9358  32.0291  32.0291  32.5427  32.5427  32.8336  32.8336
    33.0760  33.0760  33.2785  33.2785  33.3517  33.3517  34.4118  34.4118
    38.0997  38.0997  38.7179  38.7179  40.3977  40.3977  40.4253  40.4253
    40.9351  40.9351  40.9454  40.9454  44.2589  44.2589  44.2914  44.2914
    44.5609  44.5609  44.5905  44.5905  46.1308  46.1308  46.3722  46.3722
    46.7591  46.7591  47.0479  47.0479  47.0788  47.0788  47.5300  47.5300
    48.6278  48.6278  48.8086  48.8086  51.7652  51.7652  51.7866  51.7866
    51.9728  51.9728  51.9839  51.9839  52.3359  52.3359  52.5921  52.5921
    52.9949  52.9949  53.1333  53.1333  53.1712  53.1712  53.4961  53.4961
    53.6213  53.6213  53.8312  53.8312  55.1995  55.1995  55.2263  55.2263
    56.1442  56.1442  56.1573  56.1573  57.4662  57.4662  58.3334  58.3334
    61.7874  61.7874  61.8040  61.8040  61.8961  61.8961  61.9089  61.9089
    62.2068  62.2068  62.5267  62.5267  62.8899  62.8899  63.5751  63.5751
    66.1432  66.1432  66.6263  66.6263  66.9282  66.9282  66.9332  66.9332
    67.3409  67.3409  67.4344  67.4344  68.8326  68.8326  69.1022  69.1022
    69.1425  69.1425  69.2243  69.2243  69.3088  69.3088  69.4073  69.4073
    69.4767  69.4767  72.2506  72.2506  72.3306  72.3306  72.6640  72.6640
    72.6813  72.6813  74.5649  74.5649  75.7411  75.7411  76.3967  76.3967
    76.3995  76.3995  76.4064  76.4064  76.4485  76.4485  76.4568  76.4568
    76.4900  76.4900  77.0798  77.0798  77.2137  77.2137  77.3843  77.3843
    77.4928  77.4928  79.1183  79.1183  79.3328  79.3328  79.6920  79.6920
    80.0340  80.0340  81.0380  81.0380  81.1025  81.1025  81.4975  81.4975
    81.5704  81.5704  82.9131  82.9131  82.9755  82.9755  83.0352  83.0352
    83.1632  83.1632  83.3093  83.3093  84.0805  84.0805  86.0726  86.0726
    87.5378  87.5378  87.6684  87.6684  87.9219  87.9219  88.0268  88.0268
    89.1462  89.1462  89.1969  89.1969  89.2041  89.2041  89.2453  89.2453
    89.2715  89.2715  89.4735  89.4735  90.5927  90.5927  90.9156  90.9156
    91.3239  91.3239  91.3325  91.3325  91.9035  91.9035  91.9166  91.9166
    92.9436  92.9436  93.0645  93.0645  94.8504  94.8504  94.8579  94.8579
    95.1569  95.1569  95.1780  95.1780  95.8947  95.8947  96.8392  96.8392
    96.8652  96.8652  97.0032  97.0032  97.1899  97.1899  97.3230  97.3230
    97.6303  97.6303  97.8035  97.8035  98.2567  98.2567  98.3750  98.3750
    98.5930  98.5930  98.6787  98.6787 101.8633 101.8633 102.3685 102.3685
   104.2722 104.2722 104.2923 104.2923 104.3033 104.3033 104.3173 104.3173
   104.3882 104.3882 104.8022 104.8022 105.7961 105.7961 105.9649 105.9649
   106.0009 106.0009 106.0784 106.0784 106.0915 106.0915 106.7115 106.7115
   107.9268 107.9268 107.9389 107.9389 108.0215 108.0215 108.4596 108.4596
   108.7599 108.7599 108.7788 108.7788 109.3436 109.3436 110.4158 110.4158
   113.0797 113.0797 113.1218 113.1218 113.5291 113.5291 113.5717 113.5717
   113.8969 113.8969 114.5994 114.5994 114.6036 114.6036 114.6163 114.6163
   114.6318 114.6318 114.6587 114.6587 115.7529 115.7529 115.7938 115.7938
   116.3611 116.3611 116.4234 116.4234 116.4243 116.4243 116.4383 116.4383
   118.7651 118.7651 118.8680 118.8680 119.9060 119.9060 120.0977 120.0977
   120.1130 120.1130 120.2848 120.2848 120.3502 120.3502 120.5521 120.5521
   120.7514 120.7514 120.7926 120.7926 120.9797 120.9797 121.4097 121.4097
   122.0284 122.0284 122.1953 122.1953 122.3454 122.3454 122.5474 122.5474
   122.6629 122.6629 123.4094 123.4094 125.7818 125.7818 125.9076 125.9076
   126.0659 126.0659 126.0900 126.0900 126.6768 126.6768 126.8203 126.8203
   126.9288 126.9288 127.1270 127.1270 127.1835 127.1835 127.1924 127.1924
   127.2832 127.2832 127.2877 127.2877 127.4793 127.4793 127.9586 127.9586
   128.0188 128.0188 128.5589 128.5589 128.8407 128.8407 130.0603 130.0603
   130.6600 130.6600 130.8983 130.8983 131.0874 131.0874 131.1644 131.1644
   131.1829 131.1829 131.3561 131.3561 131.3948 131.3948 131.8464 131.8464
   132.6596 132.6596 133.0906 133.0906

          k = 0.0000 0.2500 0.0000 (  7503 PWs)   bands (ev):

   -28.5365 -28.5365 -28.5364 -28.5364 -27.0718 -27.0718 -27.0717 -27.0717
   -27.0704 -27.0704 -13.2242 -13.2242 -13.2239 -13.2239 -12.1866 -12.1866
   -12.1857 -12.1857 -12.1841 -12.1841  -3.0352  -3.0352   3.7570   3.7570
     6.6131   6.6131   7.2144   7.2144   8.3067   8.3067  10.6242  10.6242
    12.3654  12.3654  12.8750  12.8750  13.3783  13.3783  14.9176  14.9176
    14.9935  14.9935  16.3389  16.3389  16.8584  16.8584  17.4965  17.4965
    18.9187  18.9187  25.9420  25.9420  26.1369  26.1369  26.4698  26.4698
    26.9103  26.9103  28.7821  28.7821  28.9780  28.9780  29.8664  29.8664
    32.1292  32.1292  32.4369  32.4369  32.6590  32.6590  32.7912  32.7912
    33.7381  33.7381  33.9758  33.9758  34.0416  34.0416  35.6510  35.6510
    35.9272  35.9272  36.6174  36.6174  37.0845  37.0845  37.5025  37.5025
    38.4906  38.4906  38.5095  38.5095  38.9045  38.9045  39.1384  39.1384
    39.2997  39.2997  40.4334  40.4334  40.9863  40.9863  41.3528  41.3528
    41.5497  41.5497  41.6035  41.6035  42.3607  42.3607  42.4788  42.4788
    42.4920  42.4920  43.3289  43.3289  45.1196  45.1196  45.1280  45.1280
    45.4861  45.4861  45.6611  45.6611  46.0154  46.0154  46.7782  46.7782
    47.9713  47.9713  48.0012  48.0012  49.6349  49.6349  49.9602  49.9602
    51.1365  51.1365  51.5714  51.5714  55.6538  55.6538  55.9751  55.9751
    58.5284  58.5284  59.1753  59.1753  59.8665  59.8665  59.8919  59.8919
    60.8866  60.8866  61.5314  61.5314  61.5532  61.5532  62.0430  62.0430
    62.5472  62.5472  63.3535  63.3535  63.5693  63.5693  65.4156  65.4156
    65.5490  65.5490  66.2873  66.2873  66.3483  66.3483  66.7833  66.7833
    66.9931  66.9931  67.3040  67.3040  67.6440  67.6440  68.1086  68.1086
    68.1223  68.1223  68.7841  68.7841  69.2548  69.2548  69.3044  69.3044
    69.9751  69.9751  71.0625  71.0625  71.1711  71.1711  71.4615  71.4615
    71.5706  71.5706  71.5792  71.5792  71.9658  71.9658  72.4894  72.4894
    72.5663  72.5663  72.6179  72.6179  72.8192  72.8192  73.7083  73.7083
    73.8334  73.8334  74.5532  74.5532  75.4634  75.4634  75.6059  75.6059
    76.3472  76.3472  76.4100  76.4100  76.4168  76.4168  76.7180  76.7180
    76.8355  76.8355  76.8490  76.8490  78.2732  78.2732  78.6186  78.6186
    79.3161  79.3161  80.3315  80.3315  80.6321  80.6321  81.2758  81.2758
    81.3742  81.3742  81.5950  81.5950  81.6956  81.6956  83.1097  83.1097
    83.1747  83.1747  83.4092  83.4092  84.0835  84.0835  84.5866  84.5866
    85.7271  85.7271  85.8756  85.8756  85.9327  85.9327  86.0684  86.0684
    86.2295  86.2295  87.4405  87.4405  87.6705  87.6705  88.4227  88.4227
    88.4968  88.4968  89.9647  89.9647  90.1195  90.1195  90.3826  90.3826
    90.4232  90.4232  91.0265  91.0265  91.0856  91.0856  92.8808  92.8808
    93.0235  93.0235  93.6117  93.6117  93.8553  93.8553  94.0335  94.0335
    94.0742  94.0742  94.1332  94.1332  94.5808  94.5808  94.6006  94.6006
    94.6061  94.6061  96.4354  96.4354  96.7994  96.7994  96.9378  96.9378
    97.2762  97.2762  97.3948  97.3948  97.4097  97.4097  97.9018  97.9018
    98.3052  98.3052  98.5114  98.5114  98.7400  98.7400 100.8936 100.8936
   103.0259 103.0259 103.0413 103.0413 103.0517 103.0517 103.2981 103.2981
   103.5901 103.5901 103.9596 103.9596 104.4607 104.4607 104.8308 104.8308
   104.8369 104.8369 106.0915 106.0915 106.6643 106.6643 106.6957 106.6957
   107.4619 107.4619 107.7244 107.7244 108.6061 108.6061 111.1758 111.1758
   112.0806 112.0806 112.3077 112.3077 112.3403 112.3403 112.6516 112.6516
   112.7200 112.7200 113.8852 113.8852 114.4372 114.4372 115.1753 115.1753
   115.2797 115.2797 115.2817 115.2817 116.1073 116.1073 116.1135 116.1135
   116.2619 116.2619 116.4917 116.4917 116.5835 116.5835 117.3218 117.3218
   118.2291 118.2291 119.9607 119.9607 120.0786 120.0786 120.0816 120.0816
   120.2026 120.2026 122.0210 122.0210 122.0264 122.0264 122.0404 122.0404
   122.4822 122.4822 123.0932 123.0932 123.1175 123.1175 123.1284 123.1284
   123.2900 123.2900 123.4191 123.4191 123.5827 123.5827 124.0442 124.0442
   124.0672 124.0672 124.3118 124.3118 125.0031 125.0031 125.0249 125.0249
   125.3054 125.3054 125.7272 125.7272 126.0691 126.0691 126.0760 126.0760
   126.2138 126.2138 126.6027 126.6027 126.7883 126.7883 127.1995 127.1995
   127.5427 127.5427 127.5694 127.5694 127.6261 127.6261 128.3227 128.3227
   128.3233 128.3233 128.4256 128.4256 128.9926 128.9926 129.2551 129.2551
   129.5233 129.5233 130.0670 130.0670 130.5397 130.5397 130.6725 130.6725
   130.8569 130.8569 131.4987 131.4987 131.6301 131.6301 131.8842 131.8842
   132.1363 132.1363 132.1581 132.1581 133.2005 133.2005 133.6325 133.6325
   133.6923 133.6923 134.1512 134.1515

          k =-0.1250 0.3750-0.1250 (  7491 PWs)   bands (ev):

   -28.5364 -28.5364 -28.5363 -28.5363 -27.0718 -27.0718 -27.0716 -27.0716
   -27.0702 -27.0702 -13.2244 -13.2244 -13.2233 -13.2233 -12.1877 -12.1877
   -12.1854 -12.1854 -12.1828 -12.1828  -2.7679  -2.7679   2.9841   2.9841
     6.5393   6.5393   7.0885   7.0885   8.4480   8.4480  10.0965  10.0965
    11.9125  11.9125  12.3710  12.3710  13.3503  13.3503  15.7060  15.7060
    15.8951  15.8951  17.4524  17.4524  17.8960  17.8960  19.1654  19.1654
    20.7679  20.7679  23.3267  23.3267  23.7050  23.7050  26.3433  26.3433
    26.6880  26.6880  27.2623  27.2623  29.2461  29.2461  29.6782  29.6782
    31.1170  31.1170  32.0170  32.0170  32.6355  32.6355  33.2861  33.2861
    33.5831  33.5831  33.9029  33.9029  34.3785  34.3785  34.4936  34.4936
    35.3912  35.3912  36.3971  36.3971  36.4506  36.4506  36.7182  36.7182
    36.9904  36.9904  38.0895  38.0895  38.2271  38.2271  38.7377  38.7377
    39.3468  39.3468  40.1621  40.1621  40.4618  40.4618  41.4147  41.4147
    41.8875  41.8875  42.6593  42.6593  42.9242  42.9242  43.7292  43.7292
    43.8612  43.8612  44.4044  44.4044  44.8437  44.8437  46.5373  46.5373
    47.7117  47.7117  47.9563  47.9563  48.1981  48.1981  49.0623  49.0623
    49.2869  49.2869  49.5639  49.5639  49.5937  49.5937  52.5125  52.5125
    53.2922  53.2922  53.7299  53.7299  54.9987  54.9987  55.5192  55.5192
    55.6797  55.6797  57.2470  57.2470  58.6030  58.6030  58.7116  58.7116
    58.9771  58.9771  59.2750  59.2750  60.0258  60.0258  61.6125  61.6125
    61.8464  61.8464  62.1118  62.1118  62.4269  62.4269  63.1566  63.1566
    63.4868  63.4868  64.0802  64.0802  64.7097  64.7097  65.5694  65.5694
    65.7187  65.7187  66.6216  66.6216  67.4122  67.4122  67.4643  67.4643
    67.8964  67.8964  68.2224  68.2224  68.9104  68.9104  69.2077  69.2077
    69.8348  69.8348  70.3327  70.3327  70.5070  70.5070  71.3094  71.3094
    71.8367  71.8367  72.1651  72.1651  72.6767  72.6767  72.7899  72.7899
    72.8762  72.8762  73.2979  73.2979  73.7333  73.7333  74.9682  74.9682
    75.2801  75.2801  75.4821  75.4821  75.8797  75.8797  76.5144  76.5144
    76.6821  76.6821  76.7428  76.7428  77.2930  77.2930  77.9614  77.9614
    78.4189  78.4189  78.5214  78.5214  79.3683  79.3683  79.7669  79.7669
    80.1148  80.1148  80.9374  80.9374  81.3150  81.3150  81.6653  81.6653
    82.3968  82.3968  82.5645  82.5645  82.7185  82.7185  82.9350  82.9350
    83.1563  83.1563  83.6099  83.6099  83.9492  83.9492  83.9673  83.9673
    84.5135  84.5135  85.4227  85.4227  85.4843  85.4843  85.8387  85.8387
    86.0215  86.0215  86.0951  86.0951  86.2386  86.2386  87.6708  87.6708
    87.9954  87.9954  89.1833  89.1833  89.7682  89.7682  89.8252  89.8252
    90.3232  90.3232  90.7649  90.7649  91.5753  91.5753  91.7140  91.7140
    92.2245  92.2245  93.3994  93.3994  93.4953  93.4953  93.6149  93.6149
    94.1639  94.1639  94.3248  94.3248  94.8310  94.8310  96.1078  96.1078
    96.4911  96.4911  97.9421  97.9421  98.1203  98.1203  98.1583  98.1583
    98.8141  98.8141  99.1936  99.1936  99.3042  99.3042  99.3330  99.3330
    99.6325  99.6325  99.7475  99.7475 101.0591 101.0591 101.5163 101.5163
   101.6986 101.6986 101.8070 101.8070 101.9944 101.9944 102.8967 102.8967
   104.3581 104.3581 104.8565 104.8565 105.9826 105.9826 106.3750 106.3750
   106.5604 106.5604 107.4507 107.4507 107.8027 107.8027 108.1376 108.1376
   109.1333 109.1333 109.1967 109.1967 109.8503 109.8503 110.0482 110.0482
   110.4273 110.4273 110.4666 110.4666 110.7494 110.7494 111.6643 111.6643
   112.0996 112.0996 112.4757 112.4757 112.5491 112.5491 112.7139 112.7139
   113.9946 113.9946 114.3834 114.3834 115.1258 115.1258 115.5091 115.5091
   115.9631 115.9631 116.0534 116.0534 116.7087 116.7087 117.2787 117.2787
   117.5323 117.5323 117.6990 117.6990 117.8340 117.8340 118.1325 118.1325
   118.1841 118.1841 118.5420 118.5420 119.0160 119.0160 119.5666 119.5666
   119.9898 119.9898 120.6963 120.6963 120.9034 120.9034 121.2102 121.2102
   121.6786 121.6786 121.7345 121.7345 122.0256 122.0256 122.5881 122.5881
   122.7929 122.7929 122.8641 122.8641 124.3896 124.3896 124.6241 124.6241
   124.7611 124.7611 125.2953 125.2953 125.4066 125.4066 125.7335 125.7335
   125.9587 125.9587 126.2454 126.2454 126.2817 126.2817 126.3788 126.3788
   126.4423 126.4423 127.1357 127.1357 127.4871 127.4871 128.0930 128.0930
   128.5014 128.5014 128.8747 128.8747 129.3555 129.3555 129.4805 129.4805
   130.5114 130.5114 130.7729 130.7729 131.4178 131.4178 131.6023 131.6023
   131.7113 131.7113 131.8829 131.8829 131.9552 131.9552 132.4799 132.4799
   132.7064 132.7064 132.8712 132.8712 133.1260 133.1260 133.4371 133.4371
   133.8789 133.8790 134.0776 134.0777

          k =-0.2500 0.5000-0.2500 (  7453 PWs)   bands (ev):

   -28.5364 -28.5364 -28.5362 -28.5362 -27.0718 -27.0718 -27.0714 -27.0714
   -27.0701 -27.0701 -13.2247 -13.2247 -13.2226 -13.2226 -12.1890 -12.1890
   -12.1847 -12.1847 -12.1815 -12.1815  -2.3482  -2.3482   2.0020   2.0020
     6.6007   6.6007   7.0850   7.0850   7.9673   7.9673  10.3651  10.3651
    11.1155  11.1155  11.5547  11.5547  14.0779  14.0779  16.8315  16.8315
    17.2457  17.2457  19.0591  19.0591  19.5141  19.5141  20.8651  20.8651
    21.1046  21.1046  21.8271  21.8271  23.4953  23.4953  24.4619  24.4619
    26.5315  26.5315  27.3894  27.3894  27.8663  27.8663  29.4353  29.4353
    30.0246  30.0246  30.6300  30.6300  31.0175  31.0175  31.5648  31.5648
    31.8714  31.8714  32.1829  32.1829  34.1195  34.1195  34.4994  34.4994
    34.5879  34.5879  34.8712  34.8712  35.6399  35.6399  37.1310  37.1310
    37.6202  37.6202  37.8045  37.8045  38.3838  38.3838  39.2372  39.2372
    40.6160  40.6160  41.2743  41.2743  41.3067  41.3067  43.1062  43.1062
    43.1459  43.1459  43.3679  43.3679  43.9727  43.9727  44.8307  44.8307
    45.5438  45.5438  45.8402  45.8402  47.0692  47.0692  47.4742  47.4742
    48.1461  48.1461  49.5679  49.5679  49.9111  49.9111  50.2967  50.2967
    50.4590  50.4590  51.2202  51.2202  52.2920  52.2920  52.5950  52.5950
    54.0740  54.0740  54.1769  54.1769  54.7004  54.7004  55.0918  55.0918
    55.4970  55.4970  55.6426  55.6426  56.3943  56.3943  56.8579  56.8579
    57.5873  57.5873  57.7577  57.7577  58.7593  58.7593  59.2166  59.2166
    59.7422  59.7422  59.8328  59.8328  60.7831  60.7831  62.6087  62.6087
    62.6652  62.6652  63.0133  63.0133  63.5640  63.5640  64.4358  64.4358
    65.5966  65.5966  66.6208  66.6208  66.7106  66.7106  66.9614  66.9614
    68.2079  68.2079  68.4800  68.4800  68.5671  68.5671  68.7419  68.7419
    69.1052  69.1052  69.2786  69.2786  70.3850  70.3850  70.8617  70.8617
    71.1544  71.1544  71.4508  71.4508  72.1340  72.1340  72.4746  72.4746
    73.2818  73.2818  73.8116  73.8116  74.5063  74.5063  74.5886  74.5886
    75.3946  75.3946  75.6707  75.6707  75.9120  75.9120  76.1867  76.1867
    76.8338  76.8338  77.0805  77.0805  77.3598  77.3598  77.5182  77.5182
    78.0610  78.0610  79.6494  79.6494  79.7606  79.7606  80.0432  80.0432
    80.1418  80.1418  81.5253  81.5253  81.6542  81.6542  82.3531  82.3531
    82.6029  82.6029  83.1771  83.1771  83.5641  83.5641  83.7705  83.7705
    84.4209  84.4209  84.5710  84.5710  84.8034  84.8034  85.0437  85.0437
    85.6738  85.6738  86.0698  86.0698  86.3474  86.3474  86.9344  86.9344
    87.4562  87.4562  87.6728  87.6728  88.0415  88.0415  88.0908  88.0908
    88.3679  88.3679  89.3208  89.3208  89.6097  89.6097  89.8739  89.8739
    90.1146  90.1146  90.2191  90.2191  91.1481  91.1481  91.2159  91.2159
    91.9166  91.9166  93.1208  93.1208  93.3085  93.3085  93.5640  93.5640
    94.4560  94.4560  95.3027  95.3027  95.4496  95.4496  96.3961  96.3961
    96.7662  96.7662  97.0592  97.0592  97.7009  97.7009  98.0402  98.0402
    98.9401  98.9401 100.0226 100.0226 100.3678 100.3678 100.5055 100.5055
   101.1377 101.1377 102.0144 102.0144 102.1586 102.1586 102.6897 102.6897
   102.7090 102.7090 103.2990 103.2990 103.5591 103.5591 104.4304 104.4304
   104.7610 104.7610 105.2714 105.2714 105.9118 105.9118 106.0059 106.0059
   106.7372 106.7372 106.9156 106.9156 107.2463 107.2463 107.2913 107.2913
   107.5193 107.5193 107.7443 107.7443 108.3351 108.3351 108.4806 108.4806
   109.3289 109.3289 110.2371 110.2371 110.5775 110.5775 110.9949 110.9949
   111.4688 111.4688 112.0373 112.0373 112.5665 112.5665 112.6395 112.6395
   112.8065 112.8065 113.6101 113.6101 113.8296 113.8296 114.1801 114.1801
   114.7989 114.7989 115.0825 115.0825 115.3952 115.3952 115.8343 115.8343
   116.3209 116.3209 116.4469 116.4469 116.7767 116.7767 116.9777 116.9777
   117.4258 117.4258 117.4643 117.4643 117.9793 117.9793 118.1449 118.1449
   119.1549 119.1549 119.3436 119.3436 119.4555 119.4555 119.9578 119.9578
   120.1643 120.1643 121.0359 121.0359 122.2622 122.2622 122.4778 122.4778
   123.2950 123.2950 123.6192 123.6192 123.9054 123.9054 124.0368 124.0368
   124.2473 124.2473 124.3530 124.3530 124.8432 124.8432 125.0059 125.0059
   125.6303 125.6303 126.0608 126.0608 126.1238 126.1238 126.2261 126.2261
   126.6067 126.6067 126.8270 126.8270 127.2400 127.2400 127.7531 127.7531
   128.1688 128.1688 128.5872 128.5872 128.7357 128.7357 129.1403 129.1403
   129.7292 129.7292 129.9502 129.9502 130.0801 130.0801 130.4577 130.4577
   131.0648 131.0648 131.6775 131.6775 131.9328 131.9328 132.3871 132.3871
   132.6590 132.6590 132.9896 132.9896 133.1928 133.1928 133.7823 133.7823
   134.1359 134.1359 135.0288 135.0291

          k = 0.6250-0.3750 0.6250 (  7468 PWs)   bands (ev):

   -28.5363 -28.5363 -28.5361 -28.5361 -27.0718 -27.0718 -27.0713 -27.0713
   -27.0700 -27.0700 -13.2249 -13.2249 -13.2222 -13.2222 -12.1897 -12.1897
   -12.1842 -12.1842 -12.1809 -12.1809  -2.0027  -2.0027   1.3469   1.3469
     6.5262   6.5262   7.0974   7.0974   8.0317   8.0317  10.2098  10.2098
    10.5314  10.5314  11.3132  11.3132  15.4824  15.4824  17.5227  17.5227
    18.2638  18.2638  18.4823  18.4823  19.1306  19.1306  21.0479  21.0479
    22.2812  22.2812  23.4250  23.4250  23.6455  23.6455  25.0720  25.0720
    26.5610  26.5610  26.7271  26.7271  27.2581  27.2581  28.2894  28.2894
    28.5230  28.5230  28.8209  28.8209  29.5166  29.5166  30.2673  30.2673
    30.9807  30.9807  32.4235  32.4235  32.8018  32.8018  33.8107  33.8107
    34.8338  34.8338  35.2678  35.2678  35.5174  35.5174  36.1084  36.1084
    37.0615  37.0615  37.2860  37.2860  38.7525  38.7525  41.2869  41.2869
    41.8758  41.8758  42.4903  42.4903  43.3203  43.3203  43.3711  43.3711
    44.0796  44.0796  44.5608  44.5608  44.7253  44.7253  45.9716  45.9716
    46.9374  46.9374  47.3378  47.3378  48.1987  48.1987  48.5197  48.5197
    48.7541  48.7541  49.0760  49.0760  49.8289  49.8289  50.0844  50.0844
    51.4070  51.4070  51.4554  51.4554  52.0011  52.0011  52.2147  52.2147
    52.3405  52.3405  53.5841  53.5841  53.9275  53.9275  54.3913  54.3913
    54.7757  54.7757  55.5565  55.5565  55.9609  55.9609  56.0306  56.0306
    57.0129  57.0129  57.1755  57.1755  59.0229  59.0229  59.0501  59.0501
    60.3119  60.3119  60.6810  60.6810  61.2686  61.2686  61.8200  61.8200
    62.1840  62.1840  62.7414  62.7414  63.2289  63.2289  63.6461  63.6461
    64.7828  64.7828  65.1126  65.1126  66.2267  66.2267  66.9464  66.9464
    67.1835  67.1835  67.2127  67.2127  68.2561  68.2561  68.5567  68.5567
    69.2508  69.2508  69.6929  69.6929  70.1671  70.1671  70.2628  70.2628
    70.8291  70.8291  70.9286  70.9286  71.6293  71.6293  72.4086  72.4086
    72.4897  72.4897  73.4063  73.4063  73.7211  73.7211  74.2222  74.2222
    74.2474  74.2474  75.5907  75.5907  76.2987  76.2987  76.7923  76.7923
    76.8894  76.8894  77.5448  77.5448  77.6671  77.6671  78.4253  78.4253
    78.9172  78.9172  79.0433  79.0433  79.6413  79.6413  80.4163  80.4163
    81.1236  81.1236  81.6359  81.6359  82.1590  82.1590  82.4010  82.4010
    82.7401  82.7401  83.0484  83.0484  83.0689  83.0689  83.3818  83.3818
    84.0933  84.0933  84.4317  84.4317  85.1539  85.1539  85.9743  85.9743
    86.0678  86.0678  86.1094  86.1094  86.3915  86.3915  86.9366  86.9366
    87.1836  87.1836  87.6248  87.6248  88.6923  88.6923  89.1831  89.1831
    90.3445  90.3445  90.5653  90.5653  90.6278  90.6278  91.4374  91.4374
    91.5811  91.5811  91.8233  91.8233  93.0016  93.0016  93.3604  93.3604
    93.8208  93.8208  94.3328  94.3328  94.4989  94.4989  95.1743  95.1743
    95.2916  95.2916  95.7593  95.7593  96.0809  96.0809  96.5534  96.5534
    96.8868  96.8868  97.1061  97.1061  97.5400  97.5400  97.9778  97.9778
    98.4720  98.4720  98.5398  98.5398  99.1534  99.1534  99.2542  99.2542
    99.5687  99.5687  99.7831  99.7831 101.1510 101.1510 101.4499 101.4499
   102.4119 102.4119 102.6188 102.6188 102.8843 102.8843 102.9434 102.9434
   103.9507 103.9507 104.8257 104.8257 105.2147 105.2147 105.6205 105.6205
   106.1613 106.1613 106.3647 106.3647 106.6126 106.6126 106.9954 106.9954
   107.4549 107.4549 108.0176 108.0176 108.3727 108.3727 109.0377 109.0377
   109.5884 109.5884 110.3305 110.3305 110.6658 110.6658 111.0772 111.0772
   111.4212 111.4212 111.4433 111.4433 111.7276 111.7276 112.2182 112.2182
   112.6543 112.6543 113.0611 113.0611 113.5833 113.5833 113.9607 113.9607
   114.0824 114.0824 114.9285 114.9285 115.7155 115.7155 115.9014 115.9014
   116.6808 116.6808 117.1774 117.1774 117.5179 117.5179 117.6239 117.6239
   118.1495 118.1495 118.1977 118.1977 119.1102 119.1102 119.1896 119.1896
   119.3333 119.3333 119.5290 119.5290 120.2648 120.2648 120.4239 120.4239
   120.7216 120.7216 120.7512 120.7512 121.5313 121.5313 121.6510 121.6510
   122.0053 122.0053 122.3745 122.3745 122.6677 122.6677 122.9646 122.9646
   123.4558 123.4558 123.8313 123.8313 124.2521 124.2521 124.6990 124.6990
   124.7662 124.7662 124.9072 124.9072 125.2662 125.2662 125.8223 125.8223
   126.1042 126.1042 126.2968 126.2968 126.4095 126.4095 126.7243 126.7243
   127.1154 127.1154 128.3830 128.3830 128.7308 128.7308 129.3240 129.3240
   129.4191 129.4191 130.0529 130.0529 130.1784 130.1784 130.6613 130.6613
   131.1724 131.1724 131.3169 131.3169 131.8315 131.8315 132.1209 132.1209
   132.4132 132.4132 132.5866 132.5866 132.9901 132.9901 133.5083 133.5084
   133.7570 133.7571 133.9995 133.9998

          k = 0.5000-0.2500 0.5000 (  7471 PWs)   bands (ev):

   -28.5363 -28.5363 -28.5361 -28.5361 -27.0718 -27.0718 -27.0713 -27.0713
   -27.0700 -27.0700 -13.2248 -13.2248 -13.2223 -13.2223 -12.1895 -12.1895
   -12.1843 -12.1843 -12.1811 -12.1811  -2.0855  -2.0855   1.4767   1.4767
     6.2659   6.2659   7.4402   7.4402   8.5358   8.5358   9.7536   9.7536
    10.0776  10.0776  11.7965  11.7965  15.6700  15.6700  16.5487  16.5487
    17.5243  17.5243  18.9507  18.9507  19.8440  19.8440  21.1755  21.1755
    21.5951  21.5951  23.6893  23.6893  23.8592  23.8592  25.1119  25.1119
    25.1864  25.1864  26.5290  26.5290  27.8970  27.8970  28.3944  28.3944
    28.7256  28.7256  30.0490  30.0490  30.1320  30.1320  30.5645  30.5645
    30.9551  30.9551  32.1981  32.1981  32.7299  32.7299  34.1205  34.1205
    34.4946  34.4946  35.0357  35.0357  36.0365  36.0365  36.5558  36.5558
    36.9475  36.9475  37.1841  37.1841  38.6477  38.6477  41.2390  41.2390
    41.4390  41.4390  41.6903  41.6903  42.5416  42.5416  43.1425  43.1425
    43.9579  43.9579  45.2053  45.2053  45.5573  45.5573  45.9293  45.9293
    46.2008  46.2008  46.7846  46.7846  47.3380  47.3380  48.4579  48.4579
    48.9276  48.9276  49.0574  49.0574  50.6148  50.6148  50.6453  50.6453
    50.8783  50.8783  51.3092  51.3092  51.9948  51.9948  52.1037  52.1037
    52.1308  52.1308  52.7546  52.7546  53.6785  53.6785  53.7569  53.7569
    55.0433  55.0433  55.0825  55.0825  56.4043  56.4043  57.3728  57.3728
    58.0275  58.0275  58.2453  58.2453  59.1561  59.1561  59.4249  59.4249
    59.8526  59.8526  60.3956  60.3956  60.8346  60.8346  61.0769  61.0769
    62.1184  62.1184  62.6402  62.6402  63.2958  63.2958  64.1226  64.1226
    64.2083  64.2083  66.2710  66.2710  66.5472  66.5472  67.1665  67.1665
    67.5651  67.5651  67.6770  67.6770  68.0863  68.0863  68.9662  68.9662
    69.1915  69.1915  69.4483  69.4483  69.5569  69.5569  69.6770  69.6770
    70.6272  70.6272  71.6166  71.6166  71.7204  71.7204  72.4517  72.4517
    72.8768  72.8768  73.5344  73.5344  73.8837  73.8837  74.3675  74.3675
    74.6814  74.6814  74.8494  74.8494  75.6637  75.6637  76.4679  76.4679
    76.6099  76.6099  78.1124  78.1124  78.6454  78.6454  78.9502  78.9502
    79.6533  79.6533  80.2766  80.2766  80.3119  80.3119  80.6723  80.6723
    80.8175  80.8175  80.9685  80.9685  81.1089  81.1089  81.5330  81.5330
    81.6060  81.6060  82.1425  82.1425  82.9810  82.9810  83.8610  83.8610
    83.9302  83.9302  84.6875  84.6875  84.8269  84.8269  85.0534  85.0534
    86.0647  86.0647  86.1542  86.1542  86.7198  86.7198  87.7599  87.7599
    88.3231  88.3231  88.4403  88.4403  88.5674  88.5674  88.9725  88.9725
    89.3598  89.3598  90.0825  90.0825  90.4121  90.4121  91.1708  91.1708
    91.3269  91.3269  91.8121  91.8121  92.1646  92.1646  92.5782  92.5782
    93.2565  93.2565  93.2879  93.2879  93.4019  93.4019  94.5794  94.5794
    94.9290  94.9290  95.3305  95.3305  96.1124  96.1124  96.2902  96.2902
    96.6421  96.6421  97.0929  97.0929  97.7607  97.7607  98.2805  98.2805
    98.5015  98.5015  98.7164  98.7164  99.4386  99.4386 100.1525 100.1525
   100.6080 100.6080 100.8638 100.8638 101.5369 101.5369 101.8084 101.8084
   102.5418 102.5418 103.0021 103.0021 103.1283 103.1283 103.2444 103.2444
   104.0563 104.0563 104.7686 104.7686 105.1694 105.1694 105.5529 105.5529
   105.7818 105.7818 105.8107 105.8107 106.4088 106.4088 107.1723 107.1723
   107.4500 107.4500 107.9877 107.9877 108.1639 108.1639 108.5471 108.5471
   110.0083 110.0083 110.2386 110.2386 110.6655 110.6655 110.9868 110.9868
   112.1471 112.1471 112.4066 112.4066 112.4548 112.4548 113.1986 113.1986
   113.7667 113.7667 114.1370 114.1370 114.1577 114.1577 114.4990 114.4990
   114.8862 114.8862 115.0993 115.0993 115.3113 115.3113 115.7715 115.7715
   116.0361 116.0361 116.2136 116.2136 116.6247 116.6247 116.7618 116.7618
   117.0787 117.0787 117.4881 117.4881 117.6197 117.6197 118.3463 118.3463
   118.7365 118.7365 119.1172 119.1172 119.2083 119.2083 119.8428 119.8428
   120.7544 120.7544 120.9256 120.9256 120.9773 120.9773 122.0122 122.0122
   122.6921 122.6921 122.7340 122.7340 123.9156 123.9156 124.1737 124.1737
   124.2453 124.2453 124.4677 124.4677 124.6995 124.6995 125.0509 125.0509
   125.2568 125.2568 125.3405 125.3405 125.9432 125.9432 126.0985 126.0985
   126.2040 126.2040 126.6399 126.6399 126.9412 126.9412 127.2608 127.2608
   127.7476 127.7476 128.6247 128.6247 128.7288 128.7288 129.1454 129.1454
   129.5464 129.5464 129.6561 129.6561 129.8843 129.8843 130.7354 130.7354
   131.2385 131.2385 131.4775 131.4775 131.8340 131.8340 131.9641 131.9641
   132.2819 132.2819 132.3942 132.3942 133.1410 133.1410 133.2396 133.2396
   133.3682 133.3682 133.5282 133.5282

          k = 0.3750-0.1250 0.3750 (  7460 PWs)   bands (ev):

   -28.5364 -28.5364 -28.5362 -28.5362 -27.0718 -27.0718 -27.0714 -27.0714
   -27.0701 -27.0701 -13.2246 -13.2246 -13.2229 -13.2229 -12.1884 -12.1884
   -12.1849 -12.1849 -12.1821 -12.1821  -2.4958  -2.4958   2.2612   2.2612
     6.2409   6.2409   7.6923   7.6923   8.9368   8.9368   9.6980   9.6980
    10.0933  10.0933  12.3815  12.3815  14.5293  14.5293  15.2525  15.2525
    17.2232  17.2232  17.9892  17.9892  19.6627  19.6627  20.9028  20.9028
    21.1158  21.1158  22.1293  22.1293  23.6820  23.6820  24.1476  24.1476
    26.9450  26.9450  27.5745  27.5745  28.0893  28.0893  29.6286  29.6286
    29.9722  29.9722  31.5798  31.5798  31.8912  31.8912  31.9335  31.9335
    32.3701  32.3701  33.5514  33.5514  33.6884  33.6884  34.1793  34.1793
    34.4511  34.4511  34.9974  34.9974  36.5318  36.5318  37.3002  37.3002
    37.5710  37.5710  37.7701  37.7701  37.8928  37.8928  38.7144  38.7144
    39.0984  39.0984  40.3294  40.3294  41.8907  41.8907  42.6328  42.6328
    43.0115  43.0115  43.1162  43.1162  44.0090  44.0090  45.3431  45.3431
    45.8510  45.8510  46.2806  46.2806  46.4638  46.4638  46.9207  46.9207
    47.1581  47.1581  48.3228  48.3228  49.1221  49.1221  49.5374  49.5374
    49.7378  49.7378  50.8123  50.8123  51.6310  51.6310  51.9117  51.9117
    53.6826  53.6826  54.8042  54.8042  55.1787  55.1787  55.5643  55.5643
    55.7590  55.7590  56.0717  56.0717  56.2167  56.2167  56.8830  56.8830
    57.9517  57.9517  58.0617  58.0617  59.5664  59.5664  59.6034  59.6034
    59.8215  59.8215  61.1744  61.1744  62.1298  62.1298  62.9686  62.9686
    63.1007  63.1007  63.5196  63.5196  64.2166  64.2166  64.9345  64.9345
    65.6534  65.6534  65.8617  65.8617  66.7757  66.7757  67.6598  67.6598
    67.8121  67.8121  67.9699  67.9699  68.1669  68.1669  69.1734  69.1734
    69.3277  69.3277  69.6534  69.6534  70.8074  70.8074  71.2849  71.2849
    71.4214  71.4214  71.9753  71.9753  72.2404  72.2404  72.7410  72.7410
    72.9290  72.9290  73.2038  73.2038  74.1707  74.1707  74.3036  74.3036
    74.8784  74.8784  75.6338  75.6338  75.8252  75.8252  75.8750  75.8750
    77.1240  77.1240  77.1633  77.1633  78.1599  78.1599  78.6797  78.6797
    78.9204  78.9204  79.3414  79.3414  79.5992  79.5992  80.0274  80.0274
    80.2213  80.2213  81.3621  81.3621  81.9313  81.9313  82.4096  82.4096
    82.6753  82.6753  82.7164  82.7164  83.2781  83.2781  83.3001  83.3001
    83.5905  83.5905  83.7403  83.7403  84.5663  84.5663  84.9272  84.9272
    85.0366  85.0366  85.4020  85.4020  86.0711  86.0711  86.4222  86.4222
    86.8838  86.8838  87.1272  87.1272  87.6393  87.6393  88.6229  88.6229
    88.8296  88.8296  89.1289  89.1289  89.1777  89.1777  89.4231  89.4231
    89.9733  89.9733  91.2095  91.2095  91.3201  91.3201  91.3669  91.3669
    91.8830  91.8830  91.8967  91.8967  92.9231  92.9231  92.9937  92.9937
    93.6744  93.6744  94.3978  94.3978  95.4732  95.4732  95.7022  95.7022
    96.5980  96.5980  96.9164  96.9164  98.2293  98.2293  98.4992  98.4992
    99.6897  99.6897  99.7098  99.7098  99.9448  99.9448 100.3035 100.3035
   101.0837 101.0837 101.2011 101.2011 101.4754 101.4754 102.5732 102.5732
   102.7194 102.7194 103.2718 103.2718 103.3115 103.3115 104.0898 104.0898
   104.5036 104.5036 104.8902 104.8902 105.6823 105.6823 105.8651 105.8651
   106.4554 106.4554 106.7448 106.7448 107.4869 107.4869 108.7702 108.7702
   108.7809 108.7809 108.8818 108.8818 109.2406 109.2406 109.7444 109.7444
   110.0682 110.0682 110.3020 110.3020 110.5091 110.5091 111.0619 111.0619
   111.3054 111.3054 112.4176 112.4176 112.4592 112.4592 112.5808 112.5808
   112.7341 112.7341 113.1657 113.1657 113.9663 113.9663 114.2690 114.2690
   114.6301 114.6301 115.4721 115.4721 115.5162 115.5162 116.0836 116.0836
   116.6487 116.6487 117.1881 117.1881 117.9166 117.9166 118.2564 118.2564
   118.3909 118.3909 118.6119 118.6119 118.6222 118.6222 119.1459 119.1459
   119.4317 119.4317 119.5108 119.5108 119.6898 119.6898 119.9314 119.9314
   120.3681 120.3681 120.6103 120.6103 120.9670 120.9670 122.2675 122.2675
   122.6493 122.6493 122.7427 122.7427 122.8380 122.8380 122.9655 122.9655
   124.4222 124.4222 124.7805 124.7805 124.9317 124.9317 125.0452 125.0452
   125.4456 125.4456 125.6244 125.6244 125.9459 125.9459 127.2632 127.2632
   127.4937 127.4937 127.5132 127.5132 128.3022 128.3022 128.5596 128.5596
   128.7449 128.7449 129.1706 129.1706 129.2602 129.2602 129.7989 129.7989
   129.9600 129.9600 130.2076 130.2076 131.2904 131.2904 131.4208 131.4208
   131.5617 131.5617 131.7661 131.7661 132.3412 132.3412 132.4925 132.4925
   132.9607 132.9607 133.3290 133.3290 133.3816 133.3816 133.5617 133.5617
   133.8530 133.8531 133.9972 133.9978

          k = 0.2500 0.0000 0.2500 (  7501 PWs)   bands (ev):

   -28.5364 -28.5364 -28.5363 -28.5363 -27.0718 -27.0718 -27.0716 -27.0716
   -27.0703 -27.0703 -13.2244 -13.2244 -13.2235 -13.2235 -12.1872 -12.1872
   -12.1855 -12.1855 -12.1835 -12.1835  -2.8799  -2.8799   3.1885   3.1885
     6.5369   6.5369   7.5960   7.5960   8.4260   8.4260  10.5174  10.5174
    10.9378  10.9378  12.6324  12.6324  14.0666  14.0666  14.5338  14.5338
    15.6759  15.6759  16.7740  16.7740  18.5970  18.5970  18.8484  18.8484
    19.2213  19.2213  23.3577  23.3577  26.0331  26.0331  26.4120  26.4120
    26.4759  26.4759  27.3830  27.3830  29.2024  29.2024  30.9144  30.9144
    31.0871  31.0871  32.5708  32.5708  32.7195  32.7195  32.9898  32.9898
    33.5893  33.5893  34.2215  34.2215  34.3432  34.3432  35.2963  35.2963
    35.4900  35.4900  35.6683  35.6683  35.7719  35.7719  36.8017  36.8017
    37.3931  37.3931  38.1446  38.1446  38.5446  38.5446  38.7105  38.7105
    39.6175  39.6175  39.8120  39.8120  40.2869  40.2869  41.5093  41.5093
    41.6952  41.6952  42.4883  42.4883  43.3038  43.3038  44.2770  44.2770
    44.6674  44.6674  45.0487  45.0487  45.1990  45.1990  45.7504  45.7504
    45.8110  45.8110  45.8301  45.8301  46.3282  46.3282  46.4162  46.4162
    49.8447  49.8447  50.3864  50.3864  51.2805  51.2805  51.3707  51.3707
    51.5259  51.5259  52.2714  52.2714  53.4621  53.4621  56.2341  56.2341
    56.2904  56.2904  58.8850  58.8850  59.0422  59.0422  59.3180  59.3180
    59.3648  59.3648  59.7200  59.7200  60.7689  60.7689  61.2285  61.2285
    62.7565  62.7565  63.4641  63.4641  63.6020  63.6020  64.2523  64.2523
    64.4631  64.4631  64.8777  64.8777  65.2568  65.2568  65.4719  65.4719
    66.4901  66.4901  66.5086  66.5086  67.3239  67.3239  68.0274  68.0274
    68.6280  68.6280  68.7014  68.7014  68.8743  68.8743  69.2042  69.2042
    69.4556  69.4556  69.9468  69.9468  70.3740  70.3740  71.2056  71.2056
    71.5205  71.5205  71.8441  71.8441  72.3316  72.3316  72.4003  72.4003
    73.2652  73.2652  73.6340  73.6340  73.7729  73.7729  74.2359  74.2359
    74.8996  74.8996  75.2747  75.2747  75.5589  75.5589  76.2603  76.2603
    76.5014  76.5014  76.8926  76.8926  77.3053  77.3053  77.4115  77.4115
    78.0488  78.0488  78.4253  78.4253  78.4332  78.4332  78.5428  78.5428
    79.5579  79.5579  80.6244  80.6244  81.1252  81.1252  81.3064  81.3064
    81.8601  81.8601  82.3325  82.3325  82.6043  82.6043  83.2801  83.2801
    83.3412  83.3412  83.5877  83.5877  83.8700  83.8700  84.9234  84.9234
    85.0203  85.0203  85.7269  85.7269  86.0720  86.0720  86.6002  86.6002
    86.6609  86.6609  86.8604  86.8604  86.9429  86.9429  87.4034  87.4034
    88.2966  88.2966  88.6493  88.6493  89.1579  89.1579  89.3662  89.3662
    89.9659  89.9659  90.5849  90.5849  90.8684  90.8684  91.4593  91.4593
    91.9471  91.9471  92.1325  92.1325  93.9082  93.9082  94.3121  94.3121
    94.8110  94.8110  94.9410  94.9410  95.1106  95.1106  95.7531  95.7531
    96.4176  96.4176  96.9231  96.9231  97.0704  97.0704  97.4131  97.4131
    97.4768  97.4768  98.2195  98.2195  98.3543  98.3543  98.4175  98.4175
    99.3098  99.3098 100.1111 100.1111 100.3389 100.3389 100.5465 100.5465
   100.8249 100.8249 103.2966 103.2966 103.5764 103.5764 103.6848 103.6848
   104.0150 104.0150 104.0928 104.0928 105.6976 105.6976 106.2375 106.2375
   106.2571 106.2571 106.8404 106.8404 107.0625 107.0625 107.3677 107.3677
   109.4561 109.4561 109.5748 109.5748 110.1020 110.1020 110.3709 110.3709
   110.6352 110.6352 110.8954 110.8954 111.3794 111.3794 111.8996 111.8996
   112.0169 112.0169 112.4569 112.4569 112.6952 112.6952 113.0501 113.0501
   113.5596 113.5596 114.3892 114.3892 115.9016 115.9016 116.4096 116.4096
   116.8818 116.8818 117.0971 117.0971 117.6782 117.6782 117.7515 117.7515
   118.0635 118.0635 118.1253 118.1253 118.8743 118.8743 118.9277 118.9277
   119.1658 119.1658 119.4083 119.4083 120.1147 120.1147 120.3391 120.3391
   120.3651 120.3651 120.5972 120.5972 120.6838 120.6838 121.1456 121.1456
   121.4822 121.4822 121.6343 121.6343 123.3077 123.3077 123.8598 123.8598
   124.1946 124.1946 124.5376 124.5376 124.8182 124.8182 125.0544 125.0544
   125.1887 125.1887 125.3719 125.3719 125.7006 125.7006 125.7759 125.7759
   126.1475 126.1475 126.2023 126.2023 126.5017 126.5017 126.7764 126.7764
   127.9392 127.9392 127.9749 127.9749 128.1537 128.1537 128.5803 128.5803
   128.9178 128.9178 129.2680 129.2680 129.3364 129.3364 129.5551 129.5551
   129.6428 129.6428 129.6782 129.6782 130.4098 130.4098 130.7055 130.7055
   130.7983 130.7983 131.2317 131.2317 131.9433 131.9433 132.4117 132.4117
   132.4702 132.4702 132.7584 132.7584 133.0748 133.0748 133.5113 133.5113
   133.8223 133.8223 133.9781 133.9785

          k = 0.0000 0.5000 0.0000 (  7523 PWs)   bands (ev):

   -28.5364 -28.5364 -28.5363 -28.5363 -27.0717 -27.0717 -27.0716 -27.0716
   -27.0701 -27.0701 -13.2243 -13.2243 -13.2232 -13.2232 -12.1885 -12.1885
   -12.1856 -12.1856 -12.1814 -12.1814  -2.5904  -2.5904   2.9433   2.9433
     6.1038   6.1038   6.6189   6.6189   7.3299   7.3299  11.1755  11.1755
    12.4373  12.4373  12.7116  12.7116  13.3102  13.3102  16.8634  16.8634
    16.8776  16.8776  16.9682  16.9682  17.5033  17.5033  19.7582  19.7582
    22.4548  22.4548  23.3734  23.3734  23.5081  23.5081  23.9183  23.9183
    24.6904  24.6904  28.1670  28.1670  29.3095  29.3095  29.5279  29.5279
    30.3164  30.3164  30.3292  30.3292  30.3492  30.3492  33.3354  33.3354
    33.7797  33.7797  34.2796  34.2796  34.6775  34.6775  35.9414  35.9414
    36.3137  36.3137  36.4652  36.4652  36.6249  36.6249  37.5451  37.5451
    37.7418  37.7418  37.7718  37.7718  38.3451  38.3451  38.9663  38.9663
    39.0785  39.0785  39.6499  39.6499  39.8651  39.8651  40.0181  40.0181
    40.8007  40.8007  40.9038  40.9038  43.2591  43.2591  44.5733  44.5733
    44.7275  44.7275  45.1131  45.1131  46.2923  46.2923  47.1854  47.1854
    47.2517  47.2517  48.1600  48.1600  49.9487  49.9487  50.3519  50.3519
    50.3957  50.3957  50.8400  50.8400  50.9416  50.9416  53.5408  53.5408
    54.7970  54.7970  55.0186  55.0186  55.8538  55.8538  56.2208  56.2208
    56.2949  56.2949  57.1949  57.1949  57.3594  57.3594  57.6214  57.6214
    58.3879  58.3879  58.4972  58.4972  58.8660  58.8660  59.7365  59.7365
    61.2111  61.2111  61.3245  61.3245  61.3897  61.3897  61.4216  61.4216
    61.4888  61.4888  62.5151  62.5151  64.0389  64.0389  64.8240  64.8240
    65.0561  65.0561  65.2589  65.2589  65.3286  65.3286  67.6008  67.6008
    67.9384  67.9384  68.1528  68.1528  68.6511  68.6511  69.2998  69.2998
    69.3598  69.3598  69.4940  69.4940  70.3217  70.3217  72.0253  72.0253
    72.5083  72.5083  72.5138  72.5138  72.7929  72.7929  73.5498  73.5498
    73.5637  73.5637  74.3314  74.3314  74.5649  74.5649  74.9991  74.9991
    75.0215  75.0215  75.6955  75.6955  75.8535  75.8535  76.5090  76.5090
    77.0191  77.0191  77.2339  77.2339  77.3946  77.3946  78.7702  78.7702
    79.1638  79.1638  80.0809  80.0809  80.3344  80.3344  80.3712  80.3712
    80.6543  80.6543  80.7860  80.7860  80.9465  80.9465  80.9472  80.9472
    81.3282  81.3282  81.3541  81.3541  81.5489  81.5489  82.5999  82.5999
    82.6268  82.6268  84.2543  84.2543  84.4357  84.4357  84.5152  84.5152
    84.5440  84.5440  84.6985  84.6985  84.9796  84.9796  85.4090  85.4090
    85.6848  85.6848  86.0718  86.0718  86.7703  86.7703  86.8801  86.8801
    87.7987  87.7987  88.9966  88.9966  89.2315  89.2315  90.7859  90.7859
    91.0359  91.0359  92.6065  92.6065  92.7785  92.7785  92.9249  92.9249
    94.1624  94.1624  94.3744  94.3744  94.4237  94.4237  94.4633  94.4633
    95.2759  95.2759  95.5279  95.5279  95.8226  95.8226  95.9343  95.9343
    96.0020  96.0020  96.4948  96.4948  98.4162  98.4162  98.9542  98.9542
    99.1260  99.1260  99.2351  99.2351  99.3153  99.3153 100.0486 100.0486
   100.2329 100.2329 100.7036 100.7036 100.7222 100.7222 100.7720 100.7720
   103.1173 103.1173 103.9942 103.9942 104.0378 104.0378 104.8650 104.8650
   104.8789 104.8789 105.0347 105.0347 105.1079 105.1079 105.1190 105.1190
   106.1180 106.1180 106.2864 106.2864 106.3867 106.3867 106.4967 106.4967
   107.4074 107.4074 109.3782 109.3782 109.5051 109.5051 110.5572 110.5572
   110.5639 110.5639 110.6947 110.6947 111.8381 111.8381 111.9072 111.9072
   112.0187 112.0187 112.0898 112.0898 112.3685 112.3685 112.5041 112.5041
   113.0221 113.0221 113.0335 113.0335 113.5688 113.5688 114.3545 114.3545
   114.3807 114.3807 114.6107 114.6107 116.2550 116.2550 116.5463 116.5463
   116.5801 116.5801 116.9647 116.9647 117.4585 117.4585 117.4654 117.4654
   117.8422 117.8422 117.8606 117.8606 118.0972 118.0972 118.8497 118.8497
   118.9309 118.9309 118.9385 118.9385 119.5352 119.5352 119.7422 119.7422
   119.7596 119.7596 120.7244 120.7244 121.7396 121.7396 121.8687 121.8687
   122.2112 122.2112 122.2159 122.2159 123.0274 123.0274 123.4142 123.4142
   124.0574 124.0574 124.0733 124.0733 124.2332 124.2332 124.3018 124.3018
   124.4263 124.4263 125.1680 125.1680 125.3706 125.3706 125.4619 125.4619
   126.8355 126.8355 128.1318 128.1318 128.9707 128.9707 129.0445 129.0445
   129.4931 129.4931 129.4932 129.4932 129.6075 129.6075 129.6181 129.6181
   130.3792 130.3792 130.4038 130.4038 131.0652 131.0652 132.3773 132.3773
   132.5194 132.5194 132.7163 132.7163 132.7281 132.7281 132.8846 132.8846
   133.8070 133.8070 133.9757 133.9757 134.5296 134.5296 134.8369 134.8369
   135.5092 135.5092 135.7958 135.7958

          k =-0.1250 0.6250-0.1250 (  7466 PWs)   bands (ev):

   -28.5363 -28.5363 -28.5362 -28.5362 -27.0717 -27.0717 -27.0715 -27.0715
   -27.0700 -27.0700 -13.2244 -13.2244 -13.2228 -13.2228 -12.1894 -12.1894
   -12.1855 -12.1855 -12.1801 -12.1801  -2.2552  -2.2552   2.4309   2.4309
     5.8877   5.8877   6.2741   6.2741   6.6679   6.6679  12.0527  12.0527
    12.4154  12.4154  12.6149  12.6149  13.1548  13.1548  17.8970  17.8970
    17.9725  17.9725  18.3611  18.3611  18.6059  18.6059  21.0370  21.0370
    21.0986  21.0986  21.6919  21.6919  24.1258  24.1258  24.3726  24.3726
    25.2117  25.2117  26.1334  26.1334  27.5552  27.5552  28.4597  28.4597
    28.6468  28.6468  29.9047  29.9047  31.7017  31.7017  32.1329  32.1329
    32.2220  32.2220  33.1918  33.1918  33.6524  33.6524  35.3340  35.3340
    35.7612  35.7612  35.8523  35.8523  36.6158  36.6158  37.4116  37.4116
    37.7340  37.7340  37.9057  37.9057  38.2126  38.2126  39.8874  39.8874
    40.2459  40.2459  40.4206  40.4206  41.1232  41.1232  41.3860  41.3860
    41.5742  41.5742  42.3092  42.3092  43.5987  43.5987  44.8137  44.8137
    45.2708  45.2708  45.9802  45.9802  46.8300  46.8300  47.4260  47.4260
    49.5934  49.5934  50.1767  50.1767  50.6287  50.6287  51.4498  51.4498
    51.9767  51.9767  52.0588  52.0588  52.3654  52.3654  53.8375  53.8375
    53.9065  53.9065  54.8666  54.8666  55.0481  55.0481  55.5173  55.5173
    55.7257  55.7257  56.6171  56.6171  56.7632  56.7632  57.5925  57.5925
    57.7985  57.7985  57.9979  57.9979  58.6474  58.6474  59.1644  59.1644
    59.6530  59.6530  60.0462  60.0462  60.5271  60.5271  61.0778  61.0778
    61.2950  61.2950  61.9295  61.9295  62.4253  62.4253  62.8991  62.8991
    64.8173  64.8173  64.8728  64.8728  65.5134  65.5134  66.0532  66.0532
    67.5163  67.5163  67.7150  67.7150  67.8282  67.8282  69.0463  69.0463
    69.2640  69.2640  69.3154  69.3154  69.8710  69.8710  70.9210  70.9210
    71.3603  71.3603  72.7945  72.7945  73.1031  73.1031  73.2780  73.2780
    73.6256  73.6256  74.2169  74.2169  74.2583  74.2583  74.6375  74.6375
    74.8053  74.8053  75.3703  75.3703  75.4621  75.4621  76.0963  76.0963
    76.3530  76.3530  76.8709  76.8709  77.2888  77.2888  77.8599  77.8599
    79.1354  79.1354  79.5468  79.5468  79.6975  79.6975  80.3120  80.3120
    80.3896  80.3896  81.1143  81.1143  81.2478  81.2478  81.5144  81.5144
    82.0538  82.0538  82.3624  82.3624  82.6259  82.6259  83.2708  83.2708
    83.9125  83.9125  84.6609  84.6609  84.8481  84.8481  85.1024  85.1024
    85.5967  85.5967  85.9661  85.9661  86.0731  86.0731  87.4293  87.4293
    87.6307  87.6307  87.7823  87.7823  88.3175  88.3175  88.6879  88.6879
    89.2751  89.2751  89.8757  89.8757  89.9856  89.9856  91.6569  91.6569
    91.8373  91.8373  92.0928  92.0928  92.1946  92.1946  92.4887  92.4887
    93.0153  93.0153  93.2096  93.2096  93.5538  93.5538  93.7480  93.7480
    94.5395  94.5395  95.9360  95.9360  96.1545  96.1545  96.8086  96.8086
    97.7189  97.7189  97.9761  97.9761  98.1984  98.1984  99.8881  99.8881
   100.3811 100.3811 100.4325 100.4325 100.7069 100.7069 101.0018 101.0018
   101.1012 101.1012 101.5866 101.5866 101.8116 101.8116 102.0428 102.0428
   102.3320 102.3320 102.9992 102.9992 103.8377 103.8377 104.2452 104.2452
   104.4408 104.4408 105.6114 105.6114 105.6474 105.6474 106.0810 106.0810
   106.2474 106.2474 106.3410 106.3410 106.5088 106.5088 106.9976 106.9976
   107.2626 107.2626 108.0419 108.0419 108.5761 108.5761 108.6329 108.6329
   109.3162 109.3162 109.6376 109.6376 109.7921 109.7921 110.6722 110.6722
   111.0021 111.0021 111.3336 111.3336 111.9341 111.9341 112.3384 112.3384
   112.3778 112.3778 112.4940 112.4940 113.0337 113.0337 113.2848 113.2848
   113.3133 113.3133 113.6431 113.6431 113.8190 113.8190 114.3319 114.3319
   115.1286 115.1286 115.2204 115.2204 115.7370 115.7370 116.2497 116.2497
   116.6312 116.6312 117.0222 117.0222 117.3311 117.3311 117.8926 117.8926
   118.5505 118.5505 118.9604 118.9604 119.2077 119.2077 119.8082 119.8082
   119.9912 119.9912 120.4202 120.4202 121.0889 121.0889 121.2897 121.2897
   121.6995 121.6995 122.2609 122.2609 122.9083 122.9083 123.1434 123.1434
   123.5169 123.5169 123.6670 123.6670 124.0138 124.0138 125.1052 125.1052
   125.4135 125.4135 126.2631 126.2631 126.8243 126.8243 126.9460 126.9460
   127.2891 127.2891 127.5170 127.5170 127.6104 127.6104 128.0750 128.0750
   129.0234 129.0234 129.4204 129.4204 129.7992 129.7992 130.0636 130.0636
   130.2919 130.2919 130.4855 130.4855 130.5871 130.5871 131.6351 131.6351
   131.8912 131.8912 132.1960 132.1960 132.3091 132.3091 132.6827 132.6827
   133.0394 133.0394 133.4327 133.4327 134.2193 134.2193 134.3749 134.3749
   135.0534 135.0534 135.2425 135.2425

          k = 0.7500-0.2500 0.7500 (  7456 PWs)   bands (ev):

   -28.5363 -28.5363 -28.5361 -28.5361 -27.0717 -27.0717 -27.0714 -27.0714
   -27.0699 -27.0699 -13.2244 -13.2244 -13.2225 -13.2225 -12.1897 -12.1897
   -12.1851 -12.1851 -12.1798 -12.1798  -1.9197  -1.9197   1.8274   1.8274
     5.3279   5.3279   6.3137   6.3137   6.9553   6.9553  11.6064  11.6064
    12.0434  12.0434  13.1493  13.1493  13.6095  13.6095  17.7920  17.7920
    18.5515  18.5515  19.3478  19.3478  19.7569  19.7569  20.7372  20.7372
    21.5720  21.5720  22.8183  22.8183  24.4039  24.4039  24.7159  24.7159
    25.3191  25.3191  25.6342  25.6342  26.9610  26.9610  27.1755  27.1755
    28.4408  28.4408  29.0766  29.0766  29.4300  29.4300  30.7675  30.7675
    31.0083  31.0083  31.6057  31.6057  32.7591  32.7591  33.9484  33.9484
    34.2542  34.2542  35.7524  35.7524  37.2007  37.2007  37.9395  37.9395
    38.1692  38.1692  39.1054  39.1054  39.4140  39.4140  40.2318  40.2318
    40.4260  40.4260  40.7586  40.7586  42.1826  42.1826  43.8192  43.8192
    43.9148  43.9148  44.4190  44.4190  44.6614  44.6614  45.7117  45.7117
    45.8310  45.8310  46.8947  46.8947  47.1846  47.1846  48.3667  48.3667
    48.8105  48.8105  49.3187  49.3187  50.0856  50.0856  50.9888  50.9888
    51.1794  51.1794  51.9117  51.9117  52.6412  52.6412  53.1336  53.1336
    53.3998  53.3998  53.9261  53.9261  54.9891  54.9891  55.1697  55.1697
    56.4623  56.4623  56.7110  56.7110  56.8822  56.8822  57.2339  57.2339
    57.5787  57.5787  57.7024  57.7024  58.3544  58.3544  58.7141  58.7141
    59.2283  59.2283  59.5965  59.5965  60.7947  60.7947  60.9738  60.9738
    61.5316  61.5316  62.7998  62.7998  63.3178  63.3178  63.6002  63.6002
    64.0143  64.0143  65.5532  65.5532  66.2473  66.2473  66.9594  66.9594
    67.0869  67.0869  67.1016  67.1016  67.4434  67.4434  68.0249  68.0249
    68.3875  68.3875  68.5215  68.5215  69.0624  69.0624  69.2339  69.2339
    69.8298  69.8298  70.5573  70.5573  71.0092  71.0092  71.2412  71.2412
    72.3466  72.3466  73.0136  73.0136  73.2243  73.2243  74.2644  74.2644
    75.1363  75.1363  75.8958  75.8958  76.1540  76.1540  76.4004  76.4004
    76.5543  76.5543  76.8494  76.8494  77.0110  77.0110  77.2430  77.2430
    78.0576  78.0576  78.6162  78.6162  79.0186  79.0186  80.2970  80.2970
    80.9253  80.9253  81.5850  81.5850  82.8674  82.8674  83.1499  83.1499
    83.6138  83.6138  84.0218  84.0218  84.2682  84.2682  84.3850  84.3850
    85.1557  85.1557  85.5632  85.5632  85.8377  85.8377  86.0669  86.0669
    86.1768  86.1768  86.8002  86.8002  87.5932  87.5932  87.8052  87.8052
    88.1024  88.1024  88.5408  88.5408  88.7781  88.7781  89.6026  89.6026
    89.7651  89.7651  90.1272  90.1272  91.0907  91.0907  91.5566  91.5566
    91.8086  91.8086  92.2191  92.2191  93.1275  93.1275  93.2040  93.2040
    93.7120  93.7120  94.1655  94.1655  94.8267  94.8267  95.4232  95.4232
    95.8665  95.8665  96.3303  96.3303  96.3771  96.3771  97.3690  97.3690
    97.4630  97.4630  97.7054  97.7054  98.4861  98.4861  98.6372  98.6372
    99.7378  99.7378  99.8262  99.8262 100.0601 100.0601 100.5825 100.5825
   100.6028 100.6028 100.9410 100.9410 101.2424 101.2424 101.3519 101.3519
   101.4980 101.4980 102.1575 102.1575 103.1144 103.1144 104.2192 104.2192
   104.4206 104.4206 104.6865 104.6865 104.8306 104.8306 105.1511 105.1511
   105.2207 105.2207 106.4020 106.4020 106.5565 106.5565 106.9381 106.9381
   107.5138 107.5138 107.6467 107.6467 107.7289 107.7289 108.2259 108.2259
[...]
    59.9505  59.9505  60.3690  60.3690  61.1847  61.1847  61.4836  61.4836
    62.0562  62.0562  62.6479  62.6479  63.3203  63.3203  63.8486  63.8486
    64.1174  64.1174  64.3248  64.3248  65.5071  65.5071  65.8219  65.8219
    66.6900  66.6900  66.7484  66.7484  67.3574  67.3574  68.0435  68.0435
    68.5133  68.5133  68.7456  68.7456  68.8126  68.8126  69.2280  69.2280
    69.3217  69.3217  69.6867  69.6867  70.0809  70.0809  70.7276  70.7276
    71.6830  71.6830  71.8295  71.8295  72.2891  72.2891  72.9345  72.9345
    73.6886  73.6886  73.7687  73.7687  75.1162  75.1162  75.2710  75.2710
    76.1985  76.1985  76.9145  76.9145  78.0083  78.0083  78.2331  78.2331
    78.8427  78.8427  79.3795  79.3795  80.0361  80.0361  80.2809  80.2809
    80.8756  80.8756  81.1614  81.1614  82.5906  82.5906  82.8487  82.8487
    83.3872  83.3872  83.5475  83.5475  85.0340  85.0340  85.7888  85.7888
    85.9964  85.9964  86.0754  86.0754  86.4587  86.4587  87.0316  87.0316
    87.2531  87.2531  87.9366  87.9366  88.4661  88.4661  88.9396  88.9396
    89.0869  89.0869  89.7137  89.7137  89.9360  89.9360  90.5462  90.5462
    90.8778  90.8778  91.0525  91.0525  91.5041  91.5041  92.2419  92.2419
    92.6328  92.6328  92.8032  92.8032  93.0612  93.0612  93.4068  93.4068
    94.1273  94.1273  94.4759  94.4759  95.0074  95.0074  95.6042  95.6042
    95.8980  95.8980  96.1096  96.1096  96.6569  96.6569  96.8635  96.8635
    97.2641  97.2641  97.7884  97.7884  97.9408  97.9408  98.2990  98.2990
    98.9868  98.9868  99.2332  99.2332  99.4717  99.4717  99.7337  99.7337
    99.8392  99.8392 101.0549 101.0549 101.3749 101.3749 101.7759 101.7759
   102.4892 102.4892 102.6775 102.6775 103.0066 103.0066 103.3930 103.3930
   103.7742 103.7742 104.0430 104.0430 104.1490 104.1490 105.0120 105.0120
   105.3999 105.3999 105.6450 105.6450 105.8870 105.8870 106.3457 106.3457
   106.5092 106.5092 106.7395 106.7395 107.7927 107.7927 107.8659 107.8659
   108.3434 108.3434 108.5945 108.5945 109.0489 109.0489 109.7208 109.7208
   109.8235 109.8235 110.0159 110.0159 111.2059 111.2059 111.5355 111.5355
   112.2959 112.2959 112.3367 112.3367 112.4594 112.4594 112.6535 112.6535
   113.0483 113.0483 113.1958 113.1958 114.3723 114.3723 114.6721 114.6721
   115.0224 115.0224 115.2748 115.2748 115.6647 115.6647 116.0877 116.0877
   116.5823 116.5823 117.0407 117.0407 117.7396 117.7396 118.0240 118.0240
   118.4631 118.4631 118.8935 118.8935 119.1395 119.1395 119.7015 119.7015
   119.9222 119.9222 120.2829 120.2829 120.6310 120.6310 120.9468 120.9468
   121.4837 121.4837 122.1018 122.1018 122.6105 122.6105 123.0415 123.0415
   123.1629 123.1629 123.9018 123.9018 124.8509 124.8509 124.9416 124.9416
   125.3962 125.3962 125.7169 125.7169 125.9415 125.9415 126.2635 126.2635
   126.7404 126.7404 127.1916 127.1916 127.3318 127.3318 128.2094 128.2094
   128.3519 128.3519 128.4363 128.4363 129.3074 129.3074 129.7784 129.7784
   129.9693 129.9693 130.3096 130.3096 130.6763 130.6763 130.9731 130.9731
   131.3192 131.3192 131.5090 131.5090 131.9271 131.9271 132.2274 132.2274
   132.5500 132.5500 132.9280 132.9280 133.3655 133.3655 133.9933 133.9933
   134.0942 134.0942 134.7384 134.7384

          k = 0.5000 0.0000 0.7500 (  7474 PWs)   bands (ev):

   -28.5362 -28.5362 -28.5361 -28.5361 -27.0716 -27.0716 -27.0714 -27.0714
   -27.0699 -27.0699 -13.2242 -13.2242 -13.2227 -13.2227 -12.1893 -12.1893
   -12.1851 -12.1851 -12.1801 -12.1801  -1.8116  -1.8116   1.7967   1.7967
     4.8707   4.8707   5.7127   5.7127   8.3247   8.3247   9.9948   9.9948
    12.7360  12.7360  13.7629  13.7629  15.0996  15.0996  15.4229  15.4229
    18.1140  18.1140  18.9842  18.9842  21.2334  21.2334  22.1541  22.1541
    22.5292  22.5292  22.8654  22.8654  24.6716  24.6716  24.9728  24.9728
    25.0279  25.0279  25.6563  25.6563  25.9006  25.9006  26.5627  26.5627
    28.5598  28.5598  28.8103  28.8103  29.2396  29.2396  29.5482  29.5482
    30.0699  30.0699  30.6855  30.6855  32.2164  32.2164  33.3488  33.3488
    35.0353  35.0353  35.8276  35.8276  37.0630  37.0630  37.6728  37.6728
    39.3729  39.3729  39.7423  39.7423  40.0090  40.0090  41.0737  41.0737
    41.2497  41.2497  42.2815  42.2815  42.5171  42.5171  42.9152  42.9152
    43.9428  43.9428  44.1673  44.1673  45.0459  45.0459  45.3603  45.3603
    45.6637  45.6637  46.8597  46.8597  47.8074  47.8074  48.0338  48.0338
    48.7830  48.7830  49.2070  49.2070  49.7150  49.7150  51.1552  51.1552
    51.6996  51.6996  51.7368  51.7368  52.5598  52.5598  52.6673  52.6673
    52.7267  52.7267  53.1156  53.1156  53.7721  53.7721  55.0413  55.0413
    55.7710  55.7710  55.9496  55.9496  56.2957  56.2957  57.5693  57.5693
    57.8435  57.8435  58.6275  58.6275  59.2567  59.2567  59.7968  59.7968
    60.6431  60.6431  61.2408  61.2408  61.7443  61.7443  62.3230  62.3230
    62.5102  62.5102  63.0759  63.0759  63.4558  63.4558  64.0654  64.0654
    64.4170  64.4170  64.5458  64.5458  64.8478  64.8478  65.1696  65.1696
    65.8995  65.8995  66.0237  66.0237  66.4469  66.4469  66.8070  66.8070
    67.4156  67.4156  68.7345  68.7345  69.1727  69.1727  69.6012  69.6012
    69.8785  69.8785  70.1424  70.1424  70.2419  70.2419  71.4363  71.4363
    72.2401  72.2401  72.6910  72.6910  73.2582  73.2582  73.3354  73.3354
    74.2337  74.2337  75.0324  75.0324  75.0803  75.0803  75.5395  75.5395
    76.4218  76.4218  77.2470  77.2470  77.9980  77.9980  78.5449  78.5449
    78.6580  78.6580  79.5799  79.5799  79.6339  79.6339  80.4134  80.4134
    80.8254  80.8254  81.1870  81.1870  81.9947  81.9947  82.5403  82.5403
    82.8838  82.8838  83.0341  83.0341  84.8614  84.8614  85.0943  85.0943
    85.5848  85.5848  85.6530  85.6530  86.0723  86.0723  87.2068  87.2068
    87.5521  87.5521  87.6308  87.6308  87.8169  87.8169  88.7500  88.7500
    89.0569  89.0569  89.3750  89.3750  89.6334  89.6334  90.7836  90.7836
    91.0988  91.0988  91.5380  91.5380  92.2185  92.2185  92.2712  92.2712
    92.6614  92.6614  93.0328  93.0328  93.3364  93.3364  93.3727  93.3727
    93.5728  93.5728  93.8794  93.8794  94.1927  94.1927  94.5732  94.5732
    95.1166  95.1166  95.4158  95.4158  95.7258  95.7258  96.1073  96.1073
    96.3064  96.3064  97.3187  97.3187  97.6605  97.6605  98.2164  98.2164
    98.8171  98.8171  99.4751  99.4751  99.7249  99.7249 100.1542 100.1542
   100.3697 100.3697 101.2700 101.2700 101.6724 101.6724 101.7464 101.7464
   102.1369 102.1369 102.8374 102.8374 103.1403 103.1403 103.5032 103.5032
   103.7866 103.7866 104.0104 104.0104 104.2723 104.2723 105.1683 105.1683
   105.3651 105.3651 105.6854 105.6854 106.6299 106.6299 106.8248 106.8248
   107.1323 107.1323 107.2383 107.2383 107.7630 107.7630 107.8893 107.8893
   108.5795 108.5795 108.8747 108.8747 109.5979 109.5979 109.7020 109.7020
   110.2823 110.2823 110.4407 110.4407 110.5354 110.5354 110.9396 110.9396
   111.1028 111.1028 111.9502 111.9502 112.8925 112.8925 114.0887 114.0887
   114.5613 114.5613 114.9140 114.9140 114.9933 114.9933 115.2051 115.2051
   115.4036 115.4036 115.5902 115.5902 115.8551 115.8551 116.1679 116.1679
   116.4829 116.4829 117.0071 117.0071 117.9547 117.9547 118.1104 118.1104
   118.2874 118.2874 118.7160 118.7160 118.8308 118.8308 119.9082 119.9082
   120.0645 120.0645 120.1087 120.1087 121.0235 121.0235 121.8135 121.8135
   121.9690 121.9690 122.7359 122.7359 123.1136 123.1136 123.4979 123.4979
   123.8447 123.8447 123.8685 123.8685 124.2117 124.2117 124.4087 124.4087
   124.7503 124.7503 126.0626 126.0626 126.4752 126.4752 126.6995 126.6995
   126.8329 126.8329 126.9695 126.9695 127.1211 127.1211 127.1993 127.1993
   127.8699 127.8699 127.9925 127.9925 128.7962 128.7962 128.9491 128.9491
   129.5710 129.5710 129.8305 129.8305 130.3337 130.3337 131.0659 131.0659
   131.3916 131.3916 132.0904 132.0904 132.1778 132.1778 132.4379 132.4379
   132.6515 132.6515 132.9500 132.9500 133.1717 133.1717 134.1488 134.1488
   134.6430 134.6430 134.8873 134.8874

          k =-0.2500-1.0000 0.0000 (  7446 PWs)   bands (ev):

   -28.5362 -28.5362 -28.5361 -28.5361 -27.0716 -27.0716 -27.0715 -27.0715
   -27.0698 -27.0698 -13.2242 -13.2242 -13.2225 -13.2225 -12.1906 -12.1906
   -12.1854 -12.1854 -12.1783 -12.1783  -1.7327  -1.7327   2.3838   2.3838
     4.1722   4.1722   5.3522   5.3522   6.8281   6.8281  12.1066  12.1066
    12.3664  12.3664  14.2490  14.2490  14.9128  14.9128  17.3913  17.3913
    19.0762  19.0762  20.5222  20.5222  20.6103  20.6103  20.8725  20.8725
    21.6103  21.6103  21.9055  21.9055  22.7957  22.7957  23.3082  23.3082
    24.0413  24.0413  24.8314  24.8314  26.4017  26.4017  27.3157  27.3157
    28.2125  28.2125  28.6963  28.6963  30.4040  30.4040  31.0368  31.0368
    31.3687  31.3687  32.4396  32.4396  32.9661  32.9661  33.7933  33.7933
    34.4260  34.4260  34.6776  34.6776  36.2871  36.2871  37.8703  37.8703
    38.3473  38.3473  38.5929  38.5929  39.7612  39.7612  40.0282  40.0282
    41.3327  41.3327  41.8443  41.8443  42.7821  42.7821  43.1142  43.1142
    43.1840  43.1840  44.0460  44.0460  44.7497  44.7497  46.0734  46.0734
    46.4866  46.4866  47.7047  47.7047  47.8178  47.8178  48.6606  48.6606
    49.3308  49.3308  49.9397  49.9397  50.2321  50.2321  51.8265  51.8265
    52.1933  52.1933  52.4744  52.4744  52.7506  52.7506  52.7891  52.7891
    53.1182  53.1182  53.6838  53.6838  53.7775  53.7775  54.8914  54.8914
    55.7437  55.7437  55.7524  55.7524  56.0055  56.0055  58.0772  58.0772
    58.3832  58.3832  58.6586  58.6586  58.9235  58.9235  59.7387  59.7387
    59.8513  59.8513  60.5603  60.5603  60.8643  60.8643  61.4526  61.4526
    62.5708  62.5708  63.0564  63.0564  63.2055  63.2055  63.2908  63.2908
    63.4720  63.4720  63.8030  63.8030  65.0045  65.0045  65.1461  65.1461
    66.1948  66.1948  66.7099  66.7099  66.8717  66.8717  68.0388  68.0388
    68.2942  68.2942  68.8907  68.8907  69.0197  69.0197  69.4424  69.4424
    69.5101  69.5101  69.5878  69.5878  70.6768  70.6768  71.2476  71.2476
    71.7304  71.7304  72.2757  72.2757  72.5007  72.5007  72.7075  72.7075
    73.1771  73.1771  73.3994  73.3994  74.3780  74.3780  74.8803  74.8803
    75.5169  75.5169  76.3280  76.3280  76.5514  76.5514  77.7472  77.7472
    79.4722  79.4722  80.2605  80.2605  80.5758  80.5758  80.9538  80.9538
    81.3374  81.3374  81.5658  81.5658  82.1086  82.1086  82.7012  82.7012
    83.5231  83.5231  84.3099  84.3099  84.9293  84.9293  85.2158  85.2158
    85.5008  85.5008  85.5024  85.5024  85.8209  85.8209  86.0744  86.0744
    86.7017  86.7017  86.7745  86.7745  88.1928  88.1928  88.8272  88.8272
    89.8842  89.8842  90.0435  90.0435  90.5306  90.5306  90.5631  90.5631
    91.0230  91.0230  91.2850  91.2850  91.5530  91.5530  92.3871  92.3871
    93.5211  93.5211  93.8678  93.8678  94.1103  94.1103  94.9868  94.9868
    95.3341  95.3341  95.3796  95.3796  96.0178  96.0178  96.3850  96.3850
    96.7388  96.7388  97.2174  97.2174  97.5070  97.5070  97.7270  97.7270
    97.9761  97.9761  98.1184  98.1184  98.2900  98.2900  98.4603  98.4603
    98.9297  98.9297  99.6265  99.6265 100.0724 100.0724 100.6900 100.6900
   100.7806 100.7806 100.7866 100.7866 101.3756 101.3756 101.8637 101.8637
   101.9143 101.9143 102.0457 102.0457 102.3559 102.3559 102.4297 102.4297
   102.5581 102.5581 102.5745 102.5745 102.7860 102.7860 103.2930 103.2930
   104.3510 104.3510 104.5580 104.5580 106.1796 106.1796 106.3180 106.3180
   106.5232 106.5232 107.3322 107.3322 108.3225 108.3225 108.3456 108.3456
   108.7434 108.7434 108.8664 108.8664 109.2818 109.2818 109.6635 109.6635
   110.4473 110.4473 110.4874 110.4874 110.8512 110.8512 111.0160 111.0160
   111.4093 111.4093 111.9116 111.9116 112.0209 112.0209 112.4464 112.4464
   112.9027 112.9027 112.9706 112.9706 113.6671 113.6671 114.1752 114.1752
   114.5504 114.5504 114.8507 114.8507 114.8664 114.8664 115.0933 115.0933
   115.6820 115.6820 116.0802 116.0802 116.4444 116.4444 117.1881 117.1881
   117.3398 117.3398 117.6134 117.6134 118.8291 118.8291 119.5226 119.5226
   119.6528 119.6528 120.1621 120.1621 120.4239 120.4239 120.9404 120.9404
   121.1870 121.1870 121.9085 121.9085 122.0071 122.0071 123.1076 123.1076
   123.2710 123.2710 123.5293 123.5293 123.7984 123.7984 124.9315 124.9315
   124.9856 124.9856 125.3833 125.3833 125.9649 125.9649 126.3765 126.3765
   126.5896 126.5896 128.3935 128.3935 128.5488 128.5488 128.6682 128.6682
   129.1653 129.1653 129.3654 129.3654 129.5627 129.5627 129.7393 129.7393
   129.9608 129.9608 130.5541 130.5541 130.6505 130.6505 131.0204 131.0204
   131.4601 131.4601 132.0189 132.0189 132.4789 132.4789 133.1587 133.1587
   133.5737 133.5737 133.8732 133.8732 133.9934 133.9934 135.0924 135.0924
   135.1360 135.1360 135.3056 135.3057

          k =-0.5000-1.0000 0.0000 (  7456 PWs)   bands (ev):

   -28.5362 -28.5362 -28.5361 -28.5361 -27.0716 -27.0716 -27.0714 -27.0714
   -27.0698 -27.0698 -13.2239 -13.2239 -13.2228 -13.2228 -12.1897 -12.1897
   -12.1850 -12.1850 -12.1796 -12.1796  -1.6918  -1.6918   2.0456   2.0456
     4.6087   4.6087   4.7875   4.7875   8.4300   8.4300  10.1000  10.1000
    13.7461  13.7461  13.9892  13.9892  15.0943  15.0943  15.2545  15.2545
    19.5565  19.5565  20.1549  20.1549  20.7523  20.7523  21.0651  21.0651
    21.1016  21.1016  22.3445  22.3445  24.4446  24.4446  25.4544  25.4544
    25.4885  25.4885  25.5271  25.5271  26.6773  26.6773  27.2833  27.2833
    28.4726  28.4726  28.4810  28.4810  28.4874  28.4874  28.5221  28.5221
    29.5918  29.5918  29.6017  29.6017  32.5986  32.5986  32.6315  32.6315
    35.3483  35.3483  35.4461  35.4461  38.0639  38.0639  38.0698  38.0698
    39.8620  39.8620  39.9547  39.9547  41.8465  41.8465  42.1302  42.1302
    42.1439  42.1439  42.1518  42.1518  42.1687  42.1687  42.2312  42.2312
    43.4414  43.4414  43.4904  43.4904  43.9103  43.9103  43.9451  43.9451
    47.2141  47.2141  47.4707  47.4707  47.4916  47.4916  47.8198  47.8198
    47.8812  47.8812  49.5069  49.5069  50.6102  50.6102  50.6506  50.6506
    50.8458  50.8458  51.5057  51.5057  54.0226  54.0226  54.0538  54.0538
    54.1872  54.1872  54.3771  54.3771  54.4763  54.4763  54.4828  54.4828
    55.6428  55.6428  55.6730  55.6730  56.0512  56.0512  56.1792  56.1792
    58.1579  58.1579  58.1852  58.1852  58.2231  58.2231  59.0968  59.0968
    61.8154  61.8154  61.8722  61.8722  61.9355  61.9355  62.1996  62.1996
    62.8522  62.8522  63.0162  63.0162  63.8144  63.8144  63.8587  63.8587
    63.8951  63.8951  64.2419  64.2419  64.3709  64.3709  64.5181  64.5181
    65.1105  65.1105  65.1120  65.1120  68.1472  68.1472  68.5000  68.5000
    68.7023  68.7023  68.7566  68.7566  69.3196  69.3196  69.3395  69.3395
    69.3814  69.3814  70.5724  70.5724  70.6150  70.6150  70.6726  70.6726
    71.5904  71.5904  71.6337  71.6337  72.0507  72.0507  72.1625  72.1625
    72.2284  72.2284  72.9051  72.9051  73.3990  73.3990  74.9172  74.9172
    74.9189  74.9189  75.9854  75.9854  76.4701  76.4701  79.0002  79.0002
    79.0002  79.0002  79.4899  79.4899  79.7423  79.7423  81.5406  81.5406
    81.5571  81.5571  82.5407  82.5407  82.5554  82.5554  83.3303  83.3303
    83.3323  83.3323  84.6977  84.6977  85.1603  85.1603  85.3639  85.3639
    85.9759  85.9759  86.0764  86.0764  87.6351  87.6351  87.6372  87.6372
    88.1994  88.1994  88.6279  88.6279  89.0901  89.0901  89.1719  89.1719
    89.2086  89.2086  89.5698  89.5698  89.7788  89.7788  90.0528  90.0528
    91.2815  91.2815  91.2859  91.2859  92.2498  92.2498  92.6267  92.6267
    93.4154  93.4154  93.5520  93.5520  94.1055  94.1055  94.1392  94.1392
    94.1964  94.1964  94.8301  94.8301  94.8356  94.8356  94.9920  94.9920
    96.2963  96.2963  96.3985  96.3985  96.6275  96.6275  96.8903  96.8903
    97.7306  97.7306  97.7391  97.7391  97.9218  97.9218  98.1868  98.1868
    98.1935  98.1935  98.4094  98.4094  98.4464  98.4464  98.5379  98.5379
    99.9699  99.9699  99.9714  99.9714 100.2313 100.2313 100.3913 100.3913
   101.8505 101.8505 101.8948 101.8948 101.9159 101.9159 102.3197 102.3197
   103.5035 103.5035 103.5399 103.5399 103.6720 103.6720 104.5620 104.5620
   106.8176 106.8176 107.0363 107.0363 107.1951 107.1951 107.2477 107.2477
   107.9072 107.9072 107.9419 107.9419 108.0814 108.0814 108.3305 108.3305
   109.1577 109.1577 109.2052 109.2052 109.2240 109.2240 109.2398 109.2398
   110.4662 110.4662 110.4682 110.4682 111.1778 111.1778 111.2561 111.2561
   111.4300 111.4300 111.6351 111.6351 112.8510 112.8510 112.8560 112.8560
   113.0516 113.0516 113.0557 113.0557 113.4006 113.4006 113.4063 113.4063
   114.7057 114.7057 114.9938 114.9938 115.4413 115.4413 116.6544 116.6544
   116.6590 116.6590 116.8467 116.8467 116.8887 116.8887 116.9147 116.9147
   117.0115 117.0115 117.0272 117.0272 118.3841 118.3841 118.4077 118.4077
   118.8452 118.8452 118.9474 118.9474 120.7423 120.7423 120.7473 120.7473
   121.3576 121.3576 121.8199 121.8199 123.1964 123.1964 123.4233 123.4233
   125.0449 125.0449 125.4897 125.4897 125.5485 125.5485 125.7288 125.7288
   125.9965 125.9965 126.3616 126.3616 126.4228 126.4228 126.5668 126.5668
   126.6295 126.6295 126.7567 126.7567 128.1980 128.1980 128.7831 128.7831
   129.2681 129.2681 129.3107 129.3107 129.3490 129.3490 129.4396 129.4396
   129.6593 129.6593 130.1230 130.1230 130.1351 130.1351 130.2786 130.2786
   131.1428 131.1428 131.3232 131.3232 132.1617 132.1617 133.3058 133.3058
   133.3219 133.3219 133.4921 133.4921 133.9746 133.9746 134.2352 134.2352
   135.4094 135.4095 135.4782 135.4786

     highest occupied, lowest unoccupied level (ev):     9.1870    9.3124

!    total energy              =    -367.20172314 Ry
     estimated scf accuracy    <          4.4E-09 Ry

     The total energy is the sum of the following terms:
     one-electron contribution =    -153.05856090 Ry
     hartree contribution      =      90.78348648 Ry
     xc contribution           =     -93.20961232 Ry
     ewald contribution        =    -211.71703641 Ry

     convergence has been achieved in   8 iterations

     Writing all to output data dir ./outdir/SnTe.save/

     init_run     :    236.00s CPU     99.65s WALL (       1 calls)
     electrons    :   8019.13s CPU   2366.90s WALL (       1 calls)

     Called by init_run:
     wfcinit      :    235.39s CPU     99.02s WALL (       1 calls)
     potinit      :      0.08s CPU      0.09s WALL (       1 calls)
     hinit0       :      0.48s CPU      0.48s WALL (       1 calls)

     Called by electrons:
     c_bands      :   7715.98s CPU   2066.19s WALL (       9 calls)
     sum_band     :    302.35s CPU    300.00s WALL (       9 calls)
     v_of_rho     :      0.52s CPU      0.50s WALL (       9 calls)
     mix_rho      :      0.20s CPU      0.20s WALL (       9 calls)

     Called by c_bands:
     init_us_2    :     11.15s CPU      2.40s WALL (     551 calls)
     init_us_2:cp :     11.14s CPU      2.40s WALL (     551 calls)
     cegterg      :   7579.58s CPU   2038.97s WALL (     261 calls)

     Called by *egterg:
     cdiaghg      :   1570.23s CPU    291.08s WALL (     873 calls)
     h_psi        :   1807.94s CPU   1416.54s WALL (     931 calls)
     g_psi        :    119.91s CPU     19.20s WALL (     641 calls)

     Called by h_psi:
     h_psi:calbec :    108.53s CPU      9.41s WALL (     931 calls)
     vloc_psi     :   1489.30s CPU   1375.50s WALL (     931 calls)
     add_vuspsi   :    138.90s CPU     14.94s WALL (     931 calls)

     General routines
     calbec       :    108.50s CPU      9.41s WALL (     931 calls)
     fft          :      0.39s CPU      0.39s WALL (     115 calls)
     ffts         :      0.06s CPU      0.06s WALL (      36 calls)
     fftw         :   1413.58s CPU   1327.27s WALL ( 1515904 calls)

     Parallel routines

     PWSCF        :      2h17m CPU  41m 9.08s WALL


   This run was terminated on:  16:11:12  10Dec2022            

=------------------------------------------------------------------------------=
   JOB DONE.
=------------------------------------------------------------------------------=
