
     Program PWSCF v.7.1 starts on 13Dec2022 at 15:54:46 
        Git branch: all_p_qe-7.1
        Last git commit: 64b50ae7008d8f92f2d90b8cd0971bd852daf481
        Last git commit date: Tue Sep 27 11:29:25 2022 -0300
        Last git commit subject: fix: write p instead of |p|^2

     This program is part of the open-source Quantum ESPRESSO suite
     for quantum simulation of materials; please cite
         "P. Giannozzi et al., J. Phys.:Condens. Matter 21 395502 (2009);
         "P. Giannozzi et al., J. Phys.:Condens. Matter 29 465901 (2017);
         "P. Giannozzi et al., J. Chem. Phys. 152 154105 (2020);
          URL http://www.quantum-espresso.org", 
     in publications or presentations arising from this work. More details at
     http://www.quantum-espresso.org/quote

     Parallel version (MPI), running on     6 processors

     MPI processes distributed on     1 nodes
     17207 MiB available memory on the printing compute node when the environment starts
 
     Reading input from nscf.in

     Current dimensions of program PWSCF are:
     Max number of different atomic species (ntypx) = 10
     Max number of k-points (npk) =  40000
     Max angular momentum in pseudopotentials (lmaxx) =  4

     Atomic positions and unit cell read from directory:
     ./outdir/PbSe.save/
     Atomic positions from file used, from input discarded
 
 
     R & G space division:  proc/nbgrp/npool/nimage =       6
     Subspace diagonalization in iterative solution of the eigenvalue problem:
     one sub-group per band group will be used
     custom distributed-memory algorithm (size of sub-group:  2*  2 procs)

 
     Parallelization info
     --------------------
     sticks:   dense  smooth     PW     G-vecs:    dense   smooth      PW
     Min         324     324     91                 9499     9499    1393
     Max         325     325     92                 9504     9504    1395
     Sum        1945    1945    547                57001    57001    8363
 
     Using Slab Decomposition
 


     bravais-lattice index     =            2
     lattice parameter (alat)  =      11.9052  a.u.
     unit-cell volume          =     421.8435 (a.u.)^3
     number of atoms/cell      =            2
     number of atomic types    =            2
     number of electrons       =        30.00
     number of Kohn-Sham states=          500
     kinetic-energy cutoff     =     100.0000  Ry
     charge density cutoff     =     400.0000  Ry
     Exchange-correlation= PBE
                           (   1   4   3   4   0   0   0)
     Non magnetic calculation with spin-orbit


     celldm(1)=  11.905212  celldm(2)=   0.000000  celldm(3)=   0.000000
     celldm(4)=   0.000000  celldm(5)=   0.000000  celldm(6)=   0.000000

     crystal axes: (cart. coord. in units of alat)
               a(1) = (  -0.500000   0.000000   0.500000 )  
               a(2) = (   0.000000   0.500000   0.500000 )  
               a(3) = (  -0.500000   0.500000   0.000000 )  

     reciprocal axes: (cart. coord. in units 2 pi/alat)
               b(1) = ( -1.000000 -1.000000  1.000000 )  
               b(2) = (  1.000000  1.000000  1.000000 )  
               b(3) = ( -1.000000  1.000000 -1.000000 )  


     PseudoPot. # 1 for Pb read from file:
     ../../pseudos/ONCVPSP/abinit/Pb_ONCV_PBE_fr.upf
     MD5 check sum: 97b24c55cb49957ab93c51523e258a5e
     Pseudo is Norm-conserving + core correction, Zval = 14.0
     Generated using ONCVPSP code by D. R. Hamann
     Using radial grid of 1782 points, 10 beta functions with: 
                l(1) =   0
                l(2) =   0
                l(3) =   1
                l(4) =   1
                l(5) =   1
                l(6) =   1
                l(7) =   2
                l(8) =   2
                l(9) =   2
               l(10) =   2

     PseudoPot. # 2 for Se read from file:
     ../../pseudos/ONCVPSP/abinit/Se_ONCV_PBE_fr.upf
     MD5 check sum: 19a0efce42a680f7a7be0bdd339d90c8
     Pseudo is Norm-conserving + core correction, Zval = 16.0
     Generated using ONCVPSP code by D. R. Hamann
     Using radial grid of 1214 points, 10 beta functions with: 
                l(1) =   0
                l(2) =   0
                l(3) =   1
                l(4) =   1
                l(5) =   1
                l(6) =   1
                l(7) =   2
                l(8) =   2
                l(9) =   2
               l(10) =   2

     atomic species   valence    mass     pseudopotential
        Pb            14.00   207.20000     Pb( 1.00)
        Se            16.00    78.97100     Se( 1.00)

     48 Sym. Ops., with inversion, found



   Cartesian axes

     site n.     atom                  positions (alat units)
         1           Pb  tau(   1) = (   0.0000000   0.0000000   0.0000000  )
         2           Se  tau(   2) = (  -0.5000000   0.5000000   0.5000000  )

     number of k points=    61
                       cart. coord. in units 2pi/alat
        k(    1) = (   0.0000000   0.0000000   0.0000000), wk =   0.0163934
        k(    2) = (   0.0166667   0.0166667   0.0166667), wk =   0.0163934
        k(    3) = (   0.0333333   0.0333333   0.0333333), wk =   0.0163934
        k(    4) = (   0.0500000   0.0500000   0.0500000), wk =   0.0163934
        k(    5) = (   0.0666667   0.0666667   0.0666667), wk =   0.0163934
        k(    6) = (   0.0833333   0.0833333   0.0833333), wk =   0.0163934
        k(    7) = (   0.1000000   0.1000000   0.1000000), wk =   0.0163934
        k(    8) = (   0.1166667   0.1166667   0.1166667), wk =   0.0163934
        k(    9) = (   0.1333333   0.1333333   0.1333333), wk =   0.0163934
        k(   10) = (   0.1500000   0.1500000   0.1500000), wk =   0.0163934
        k(   11) = (   0.1666667   0.1666667   0.1666667), wk =   0.0163934
        k(   12) = (   0.1833333   0.1833333   0.1833333), wk =   0.0163934
        k(   13) = (   0.2000000   0.2000000   0.2000000), wk =   0.0163934
        k(   14) = (   0.2166667   0.2166667   0.2166667), wk =   0.0163934
        k(   15) = (   0.2333333   0.2333333   0.2333333), wk =   0.0163934
        k(   16) = (   0.2500000   0.2500000   0.2500000), wk =   0.0163934
        k(   17) = (   0.2666667   0.2666667   0.2666667), wk =   0.0163934
        k(   18) = (   0.2833333   0.2833333   0.2833333), wk =   0.0163934
        k(   19) = (   0.3000000   0.3000000   0.3000000), wk =   0.0163934
        k(   20) = (   0.3166667   0.3166667   0.3166667), wk =   0.0163934
        k(   21) = (   0.3333333   0.3333333   0.3333333), wk =   0.0163934
        k(   22) = (   0.3500000   0.3500000   0.3500000), wk =   0.0163934
        k(   23) = (   0.3666667   0.3666667   0.3666667), wk =   0.0163934
        k(   24) = (   0.3833333   0.3833333   0.3833333), wk =   0.0163934
        k(   25) = (   0.4000000   0.4000000   0.4000000), wk =   0.0163934
        k(   26) = (   0.4166667   0.4166667   0.4166667), wk =   0.0163934
        k(   27) = (   0.4333333   0.4333333   0.4333333), wk =   0.0163934
        k(   28) = (   0.4500000   0.4500000   0.4500000), wk =   0.0163934
        k(   29) = (   0.4666667   0.4666667   0.4666667), wk =   0.0163934
        k(   30) = (   0.4833333   0.4833333   0.4833333), wk =   0.0163934
        k(   31) = (   0.5000000   0.5000000   0.5000000), wk =   0.0163934
        k(   32) = (   0.4833333   0.5166667   0.4833333), wk =   0.0163934
        k(   33) = (   0.4666667   0.5333333   0.4666667), wk =   0.0163934
        k(   34) = (   0.4500000   0.5500000   0.4500000), wk =   0.0163934
        k(   35) = (   0.4333333   0.5666667   0.4333333), wk =   0.0163934
        k(   36) = (   0.4166667   0.5833333   0.4166667), wk =   0.0163934
        k(   37) = (   0.4000000   0.6000000   0.4000000), wk =   0.0163934
        k(   38) = (   0.3833333   0.6166667   0.3833333), wk =   0.0163934
        k(   39) = (   0.3666667   0.6333333   0.3666667), wk =   0.0163934
        k(   40) = (   0.3500000   0.6500000   0.3500000), wk =   0.0163934
        k(   41) = (   0.3333333   0.6666667   0.3333333), wk =   0.0163934
        k(   42) = (   0.3166667   0.6833333   0.3166667), wk =   0.0163934
        k(   43) = (   0.3000000   0.7000000   0.3000000), wk =   0.0163934
        k(   44) = (   0.2833333   0.7166667   0.2833333), wk =   0.0163934
        k(   45) = (   0.2666667   0.7333333   0.2666667), wk =   0.0163934
        k(   46) = (   0.2500000   0.7500000   0.2500000), wk =   0.0163934
        k(   47) = (   0.2333333   0.7666667   0.2333333), wk =   0.0163934
        k(   48) = (   0.2166667   0.7833333   0.2166667), wk =   0.0163934
        k(   49) = (   0.2000000   0.8000000   0.2000000), wk =   0.0163934
        k(   50) = (   0.1833333   0.8166667   0.1833333), wk =   0.0163934
        k(   51) = (   0.1666667   0.8333333   0.1666667), wk =   0.0163934
        k(   52) = (   0.1500000   0.8500000   0.1500000), wk =   0.0163934
        k(   53) = (   0.1333333   0.8666667   0.1333333), wk =   0.0163934
        k(   54) = (   0.1166667   0.8833333   0.1166667), wk =   0.0163934
        k(   55) = (   0.1000000   0.9000000   0.1000000), wk =   0.0163934
        k(   56) = (   0.0833333   0.9166667   0.0833333), wk =   0.0163934
        k(   57) = (   0.0666667   0.9333333   0.0666667), wk =   0.0163934
        k(   58) = (   0.0500000   0.9500000   0.0500000), wk =   0.0163934
        k(   59) = (   0.0333333   0.9666667   0.0333333), wk =   0.0163934
        k(   60) = (   0.0166667   0.9833333   0.0166667), wk =   0.0163934
        k(   61) = (   0.0000000   1.0000000   0.0000000), wk =   0.0163934

     Dense  grid:    57001 G-vectors     FFT dimensions: (  54,  54,  54)

     Estimated max dynamical RAM per process >     119.77 MB

     Estimated total dynamical RAM >     718.62 MB

     The potential is recalculated from file :
     ./outdir/PbSe.save/charge-density

     Starting wfcs are   36 randomized atomic wfcs +  464 random wfcs

     Band Structure Calculation
     Davidson diagonalization with overlap

     ethr =  3.33E-11,  avg # of iterations = 26.3

     total cpu time spent up to now is     2088.8 secs

     End of band structure calculation

          k = 0.0000 0.0000 0.0000 (  7119 PWs)   bands (ev):

   -39.4675 -39.4675 -39.4675 -39.4675 -38.5736 -38.5736 -38.5736 -38.5736
   -38.5729 -38.5729  -9.9587  -9.9587  -9.9587  -9.9587  -7.3911  -7.3911
    -7.3867  -7.3867  -7.3867  -7.3867  -4.8468  -4.8468   1.7350   1.7350
     6.0965   6.0965   6.7431   6.7431   6.7431   6.7431  11.0180  11.0180
    13.3049  13.3049  13.3049  13.3049  14.7841  14.7841  14.7841  14.7841
    14.9065  14.9065  16.0638  16.0638  16.6303  16.6303  17.1086  17.1086
    17.1086  17.1086  27.3507  27.3507  27.8208  27.8208  27.8208  27.8208
    29.6648  29.6648  29.6648  29.6648  29.6648  29.6648  30.0784  30.0784
    30.0784  30.0784  30.2668  30.2668  31.5215  31.5215  31.5215  31.5215
    33.8948  33.8948  35.8933  35.8933  37.2726  37.2726  37.2726  37.2726
    39.5860  39.5860  39.5860  39.5860  39.6886  39.6886  39.8095  39.8095
    39.8321  39.8321  39.8321  39.8321  39.8321  39.8321  41.1881  41.1881
    41.1881  41.1881  41.6959  41.6959  41.6959  41.6959  41.8120  41.8120
    42.4356  42.4356  42.4356  42.4356  42.4356  42.4356  43.4741  43.4741
    45.6934  45.6934  45.6934  45.6934  45.7008  45.7008  46.0040  46.0040
    46.4031  46.4031  46.4031  46.4031  46.5262  46.5262  46.5262  46.5262
    46.6850  46.6850  48.2313  48.2313  48.2313  48.2313  48.5580  48.5580
    51.0188  51.0188  56.2649  56.2649  57.1690  57.1690  57.1690  57.1690
    60.3406  60.3406  60.3406  60.3406  63.1732  63.1732  63.1732  63.1732
    63.1732  63.1732  63.3082  63.3082  66.6671  66.6671  67.8265  67.8265
    67.8265  67.8265  67.8265  67.8265  68.2727  68.2727  68.2727  68.2727
    68.3580  68.3580  69.2293  69.2293  69.2293  69.2293  69.3376  69.3376
    70.0489  70.0489  70.0489  70.0489  71.4527  71.4527  71.4527  71.4527
    71.4619  71.4619  71.4771  71.4771  71.5403  71.5403  71.5403  71.5403
    72.5217  72.5217  72.5217  72.5217  72.5217  72.5217  73.5937  73.5937
    73.6341  73.6341  73.6341  73.6341  74.8991  74.8991  74.8991  74.8991
    74.9602  74.9602  74.9602  74.9602  74.9602  74.9602  74.9795  74.9795
    74.9795  74.9795  76.7102  76.7102  76.7102  76.7102  76.7102  76.7102
    77.3727  77.3727  77.5982  77.5982  77.5982  77.5982  77.7460  77.7460
    78.7167  78.7167  79.5917  79.5917  79.5917  79.5917  79.8571  79.8571
    80.2809  80.2809  80.5139  80.5139  80.5139  80.5139  85.0813  85.0813
    86.1046  86.1046  87.2905  87.2905  87.4503  87.4503  87.4503  87.4503
    88.9586  88.9586  88.9586  88.9586  89.0487  89.0487  89.9656  89.9656
    89.9656  89.9656  90.4838  90.4838  90.4838  90.4838  90.4838  90.4838
    90.5660  90.5660  90.5660  90.5660  90.5660  90.5660  90.9779  90.9779
    91.2440  91.2440  91.2440  91.2440  91.8595  91.8595  91.8595  91.8595
    93.1155  93.1155  93.1155  93.1155  93.3134  93.3134  94.8195  94.8195
    96.1130  96.1130  96.1130  96.1130  96.7492  96.7492  96.8598  96.8598
    97.9699  97.9699  97.9699  97.9699  97.9699  97.9699  98.7228  98.7228
    98.7228  98.7228  98.7228  98.7228 100.6274 100.6274 100.6274 100.6274
   100.6300 100.6300 101.1313 101.1313 101.1582 101.1582 101.1582 101.1582
   104.0969 104.0969 104.0969 104.0969 105.2205 105.2205 105.8882 105.8882
   105.8882 105.8882 105.9301 105.9301 105.9301 105.9301 106.0737 106.0737
   106.0738 106.0738 106.0738 106.0738 106.1110 106.1110 106.1133 106.1133
   106.2490 106.2490 107.5982 107.5982 107.5982 107.5982 112.7671 112.7671
   112.7671 112.7671 112.7671 112.7671 115.8058 115.8058 116.8768 116.8768
   116.8768 116.8768 117.8784 117.8784 117.8784 117.8784 118.9031 118.9031
   118.9031 118.9031 118.9031 118.9031 119.1897 119.1897 120.6010 120.6010
   120.6010 120.6010 120.6875 120.6875 121.9912 121.9912 121.9912 121.9912
   123.7090 123.7090 124.5124 124.5124 124.5124 124.5124 124.5876 124.5876
   124.8242 124.8242 124.8511 124.8511 124.8511 124.8511 125.9919 125.9919
   125.9919 125.9919 125.9919 125.9919 126.2189 126.2189 126.7932 126.7932
   126.7932 126.7932 126.8390 126.8390 126.8613 126.8613 126.8613 126.8613
   127.9842 127.9842 128.4896 128.4896 128.4896 128.4896 128.4896 128.4896
   129.0444 129.0444 129.0444 129.0444 129.8406 129.8406 129.8797 129.8797
   131.3020 131.3020 131.3020 131.3020 131.4968 131.4968 131.8590 131.8590
   131.8590 131.8590 131.8767 131.8767 131.8767 131.8767 131.8797 131.8797
   133.1969 133.1969 133.1969 133.1969 133.1969 133.1969 134.5922 134.5922
   134.5922 134.5922 134.5989 134.5989 134.7879 134.7879 135.0349 135.0349
   135.0349 135.0349 135.1895 135.1895 135.1895 135.1895 135.2681 135.2681
   135.2681 135.2681 135.2681 135.2681 135.4009 135.4009 135.4533 135.4533
   135.4533 135.4533 135.4533 135.4533 135.4868 135.4868 135.4868 135.4868
   135.4868 135.4868 135.6381 135.6381

          k = 0.0167 0.0167 0.0167 (  7125 PWs)   bands (ev):

   -39.4675 -39.4675 -39.4675 -39.4675 -38.5736 -38.5736 -38.5736 -38.5736
   -38.5729 -38.5729  -9.9587  -9.9587  -9.9586  -9.9586  -7.3911  -7.3911
    -7.3868  -7.3868  -7.3867  -7.3867  -4.8450  -4.8450   1.7294   1.7294
     6.0985   6.0985   6.7435   6.7435   6.7457   6.7457  11.0083  11.0083
    13.2778  13.2778  13.2897  13.2897  14.7818  14.7818  14.7910  14.7910
    14.9105  14.9105  16.0883  16.0883  16.6559  16.6559  17.1236  17.1236
    17.1273  17.1273  27.3248  27.3248  27.7801  27.7801  27.8027  27.8027
    29.5432  29.5432  29.5516  29.5516  29.6677  29.6677  30.1340  30.1340
    30.1724  30.1724  30.3300  30.3300  31.5706  31.5706  31.5735  31.5735
    33.9126  33.9126  35.8701  35.8701  37.2309  37.2309  37.2612  37.2612
    39.5397  39.5397  39.5803  39.5803  39.6684  39.6684  39.7791  39.7791
    39.7847  39.7847  39.8131  39.8131  39.8551  39.8551  41.0146  41.0146
    41.1076  41.1076  41.7482  41.7482  41.7859  41.7859  41.9259  41.9259
    42.4861  42.4861  42.4891  42.4891  42.4932  42.4932  43.4689  43.4689
    45.5370  45.5370  45.5408  45.5408  45.7465  45.7465  45.9408  45.9408
    46.3943  46.3943  46.5124  46.5124  46.5794  46.5794  46.5803  46.5803
    46.8065  46.8065  48.2546  48.2546  48.2860  48.2860  48.5962  48.5962
    51.0577  51.0577  56.2412  56.2412  57.1320  57.1320  57.1427  57.1427
    60.3558  60.3558  60.3592  60.3592  63.1714  63.1714  63.1740  63.1740
    63.1766  63.1766  63.3373  63.3373  66.6148  66.6148  67.5486  67.5486
    67.5491  67.5491  67.8065  67.8065  68.1446  68.1446  68.4455  68.4455
    68.4974  68.4974  69.1095  69.1095  69.2008  69.2008  69.5662  69.5662
    70.1501  70.1501  70.1523  70.1523  71.3148  71.3148  71.3464  71.3464
    71.3611  71.3611  71.4427  71.4427  71.4524  71.4524  71.5818  71.5818
    72.5114  72.5114  72.6845  72.6845  72.6874  72.6874  73.4933  73.4933
    73.5205  73.5205  73.7198  73.7198  74.5798  74.5798  74.5810  74.5810
    74.9030  74.9030  74.9044  74.9044  74.9631  74.9631  75.4679  75.4679
    75.4683  75.4683  76.5050  76.5050  76.7806  76.7806  76.7820  76.7820
    77.4074  77.4074  77.5259  77.5259  77.5922  77.5922  77.9984  77.9984
    78.7138  78.7138  79.4579  79.4579  79.5336  79.5336  79.7719  79.7719
    80.3498  80.3498  80.6223  80.6223  80.7119  80.7119  85.0988  85.0988
    86.1189  86.1189  87.2792  87.2792  87.4229  87.4229  87.4466  87.4466
    88.6848  88.6848  88.7211  88.7211  88.9901  88.9901  90.0047  90.0047
    90.0129  90.0129  90.0331  90.0331  90.2354  90.2354  90.2508  90.2508
    90.6792  90.6792  90.7293  90.7293  91.0239  91.0239  91.0778  91.0778
    91.1952  91.1952  91.2279  91.2279  92.1477  92.1477  92.2022  92.2022
    93.0069  93.0069  93.1347  93.1347  93.2890  93.2890  94.9083  94.9083
    96.1183  96.1183  96.1648  96.1648  96.7514  96.7514  96.8274  96.8274
    97.6326  97.6326  97.8284  97.8284  97.8300  97.8300  98.7771  98.7771
    98.7882  98.7882  99.0654  99.0654 100.2411 100.2411 100.5422 100.5422
   100.5430 100.5430 101.3462 101.3462 101.3617 101.3617 101.6040 101.6040
   104.0137 104.0137 104.0599 104.0599 105.2399 105.2399 105.3927 105.3927
   105.3929 105.3929 105.5262 105.5262 105.5847 105.5847 105.8158 105.8158
   106.0036 106.0036 106.4371 106.4371 106.6301 106.6301 106.6303 106.6303
   106.8174 106.8174 107.6864 107.6864 107.7510 107.7510 112.7270 112.7270
   112.7314 112.7314 112.7690 112.7690 115.7722 115.7722 116.7939 116.7939
   116.8179 116.8179 117.9201 117.9201 117.9653 117.9653 118.7958 118.7958
   118.7986 118.7986 118.8902 118.8902 119.1635 119.1635 120.6155 120.6155
   120.6858 120.6858 120.7574 120.7574 121.8820 121.8820 122.0102 122.0102
   123.8756 123.8756 124.3250 124.3250 124.3343 124.3343 124.4869 124.4869
   124.7272 124.7272 124.7283 124.7283 124.8605 124.8605 125.8681 125.8681
   126.0278 126.0278 126.1943 126.1943 126.2875 126.2875 126.6707 126.6707
   126.7038 126.7038 126.8235 126.8235 126.9052 126.9052 126.9791 126.9791
   127.9088 127.9088 128.3183 128.3183 128.4406 128.4406 128.4430 128.4430
   129.2208 129.2208 129.2327 129.2327 129.9833 129.9833 130.1402 130.1402
   131.0670 131.0670 131.0677 131.0677 131.4203 131.4203 131.6817 131.6817
   131.7936 131.7936 131.9597 131.9597 131.9781 131.9781 131.9894 131.9894
   133.1508 133.1508 133.3282 133.3282 133.4016 133.4016 134.1071 134.1071
   134.1099 134.1099 134.4165 134.4165 134.4293 134.4293 134.4577 134.4577
   134.7676 134.7676 134.8159 134.8159 134.9133 134.9133 135.0724 135.0724
   135.1375 135.1375 135.1410 135.1410 135.2699 135.2699 135.2979 135.2979
   135.4900 135.4900 135.5035 135.5035 135.5752 135.5752 135.5778 135.5778
   135.7360 135.7360 135.7648 135.7648

          k = 0.0333 0.0333 0.0333 (  7149 PWs)   bands (ev):

   -39.4675 -39.4675 -39.4675 -39.4675 -38.5736 -38.5736 -38.5736 -38.5736
   -38.5729 -38.5729  -9.9587  -9.9587  -9.9586  -9.9586  -7.3910  -7.3910
    -7.3869  -7.3869  -7.3866  -7.3866  -4.8397  -4.8397   1.7129   1.7129
     6.1045   6.1045   6.7449   6.7449   6.7536   6.7536  10.9793  10.9793
    13.2007  13.2007  13.2452  13.2452  14.7737  14.7737  14.8114  14.8114
    14.9232  14.9232  16.1600  16.1600  16.7307  16.7307  17.1685  17.1685
    17.1828  17.1828  27.2423  27.2423  27.6699  27.6699  27.7444  27.7444
    29.3252  29.3252  29.3331  29.3331  29.6763  29.6763  30.2409  30.2409
    30.3144  30.3144  30.4521  30.4521  31.7168  31.7168  31.7261  31.7261
    33.9654  33.9654  35.8002  35.8002  37.1109  37.1109  37.2304  37.2304
    39.4277  39.4277  39.5518  39.5518  39.6008  39.6008  39.6528  39.6528
    39.6784  39.6784  39.7628  39.7628  39.9103  39.9103  40.7088  40.7088
    40.9574  40.9574  41.8298  41.8298  41.9791  41.9791  42.1312  42.1312
    42.6279  42.6279  42.6395  42.6395  42.6510  42.6510  43.4668  43.4668
    45.2472  45.2472  45.2499  45.2499  45.7134  45.7134  45.9039  45.9039
    46.2651  46.2651  46.4734  46.4734  46.9290  46.9290  46.9305  46.9305
    46.9675  46.9675  48.3222  48.3222  48.4011  48.4011  48.7208  48.7208
    51.1763  51.1763  56.1717  56.1717  57.0256  57.0256  57.0672  57.0672
    60.3973  60.3973  60.4095  60.4095  63.1659  63.1659  63.1767  63.1767
    63.1871  63.1871  63.4230  63.4230  66.4518  66.4518  67.0626  67.0626
    67.0720  67.0720  67.7469  67.7469  67.8180  67.8180  68.6105  68.6105
    68.6599  68.6599  68.9785  68.9785  69.1441  69.1441  69.9340  69.9340
    70.3706  70.3706  70.3969  70.3969  70.9910  70.9910  71.0279  71.0279
    71.2347  71.2347  71.3440  71.3440  71.3569  71.3569  71.6408  71.6408
    72.4767  72.4767  73.0184  73.0184  73.0226  73.0226  73.2336  73.2336
    73.2579  73.2579  73.9840  73.9840  74.4458  74.4458  74.4499  74.4499
    74.7166  74.7166  74.7210  74.7210  74.9700  74.9700  76.1070  76.1070
    76.1076  76.1076  76.1426  76.1426  76.8379  76.8379  76.8966  76.8966
    77.4723  77.4723  77.5210  77.5210  77.6397  77.6397  78.5069  78.5069
    78.5124  78.5124  79.2688  79.2688  79.4153  79.4153  79.8042  79.8042
    80.3889  80.3889  80.8864  80.8864  81.1080  81.1080  85.1452  85.1452
    86.1584  86.1584  87.2182  87.2182  87.3158  87.3158  87.4492  87.4492
    88.1199  88.1199  88.1270  88.1270  88.9758  88.9758  89.5511  89.5511
    89.7525  89.7525  89.7756  89.7756  90.1501  90.1501  90.1525  90.1525
    90.7119  90.7119  90.7788  90.7788  91.2105  91.2105  91.3775  91.3775
    91.3843  91.3843  91.5274  91.5274  92.6652  92.6652  92.7788  92.7788
    92.8278  92.8278  93.2211  93.2211  93.2882  93.2882  95.1120  95.1120
    96.1154  96.1154  96.2596  96.2596  96.6662  96.6662  96.8433  96.8433
    97.0813  97.0813  97.5602  97.5602  97.5781  97.5781  98.7629  98.7629
    98.7976  98.7976  99.6327  99.6327  99.7834  99.7834 100.5458 100.5458
   100.5473 100.5473 101.7343 101.7343 101.7485 101.7485 102.2688 102.2688
   103.7779 103.7779 103.9414 103.9414 104.8138 104.8138 104.8144 104.8144
   104.9227 104.9227 105.0810 105.0810 105.4123 105.4123 105.6543 105.6543
   105.8196 105.8196 106.8535 106.8535 107.2701 107.2701 107.2704 107.2704
   107.4853 107.4853 107.9011 107.9011 108.0965 108.0965 112.6057 112.6057
   112.6226 112.6226 112.7748 112.7748 115.6693 115.6693 116.6185 116.6185
   116.6877 116.6877 117.9825 117.9825 118.1515 118.1515 118.5301 118.5301
   118.5319 118.5319 118.8512 118.8512 119.1106 119.1106 120.5862 120.5862
   120.8791 120.8791 120.9803 120.9803 121.6583 121.6583 122.0739 122.0739
   123.7558 123.7558 123.7621 123.7621 124.1528 124.1528 124.3358 124.3358
   124.6659 124.6659 124.6669 124.6669 124.9156 124.9156 125.5041 125.5041
   125.8763 125.8763 126.4036 126.4036 126.4475 126.4475 126.6455 126.6455
   126.6512 126.6512 126.8390 126.8390 126.9232 126.9232 126.9442 126.9442
   127.8078 127.8078 128.0667 128.0667 128.3978 128.3978 128.4183 128.4183
   129.6152 129.6152 129.6491 129.6491 130.2673 130.2673 130.5984 130.5984
   130.5999 130.5999 130.7664 130.7664 131.1786 131.1786 131.2981 131.2981
   131.7585 131.7585 132.0885 132.0885 132.0966 132.0966 132.1340 132.1340
   132.9680 132.9680 133.3102 133.3102 133.3195 133.3195 133.3353 133.3353
   133.4347 133.4347 133.7468 133.7468 133.8442 133.8442 134.0859 134.0859
   134.2724 134.2724 134.3547 134.3547 134.3976 134.3976 134.7852 134.7852
   135.0824 135.0824 135.1702 135.1702 135.1756 135.1756 135.3202 135.3202
   135.3772 135.3772 135.5956 135.5956 135.8215 135.8215 135.8223 135.8223
   135.8306 135.8306 135.9814 135.9814

          k = 0.0500 0.0500 0.0500 (  7161 PWs)   bands (ev):

   -39.4675 -39.4675 -39.4675 -39.4675 -38.5736 -38.5736 -38.5736 -38.5736
   -38.5729 -38.5729  -9.9587  -9.9587  -9.9585  -9.9585  -7.3908  -7.3908
    -7.3871  -7.3871  -7.3865  -7.3865  -4.8309  -4.8309   1.6857   1.6857
     6.1142   6.1142   6.7473   6.7473   6.7666   6.7666  10.9319  10.9319
    13.0833  13.0833  13.1746  13.1746  14.7575  14.7575  14.8442  14.8442
    14.9458  14.9458  16.2739  16.2739  16.8500  16.8500  17.2429  17.2429
    17.2727  17.2727  27.0930  27.0930  27.5146  27.5146  27.6360  27.6360
    29.1087  29.1087  29.1151  29.1151  29.6906  29.6906  30.3710  30.3710
    30.4239  30.4239  30.5577  30.5577  31.9492  31.9492  31.9650  31.9650
    34.0512  34.0512  35.6838  35.6838  36.9255  36.9255  37.1875  37.1875
    39.2567  39.2567  39.4587  39.4587  39.4745  39.4745  39.4813  39.4813
    39.5587  39.5587  39.6854  39.6854  39.9102  39.9102  40.4576  40.4576
    40.8287  40.8287  41.9305  41.9305  42.2178  42.2178  42.2938  42.2938
    42.8342  42.8342  42.8642  42.8642  42.8780  42.8780  43.4994  43.4994
    44.9433  44.9433  44.9451  44.9451  45.3844  45.3844  46.1285  46.1285
    46.1946  46.1946  46.4153  46.4153  47.1411  47.1411  47.3321  47.3321
    47.3347  47.3347  48.4285  48.4285  48.5194  48.5194  48.9196  48.9196
    51.3786  51.3786  56.0598  56.0598  56.8609  56.8609  56.9512  56.9512
    60.4528  60.4528  60.4766  60.4766  63.1563  63.1563  63.1825  63.1825
    63.2056  63.2056  63.5613  63.5613  66.1668  66.1668  66.5316  66.5316
    66.5488  66.5488  67.4506  67.4506  67.6491  67.6491  68.6345  68.6345
    68.7000  68.7000  68.8607  68.8607  69.0917  69.0917  70.2454  70.2454
    70.4909  70.4909  70.5133  70.5133  70.7208  70.7208  70.8048  70.8048
    71.1327  71.1327  71.2572  71.2572  71.2718  71.2718  71.7230  71.7230
    72.4078  72.4078  72.9922  72.9922  73.0157  73.0157  73.3864  73.3864
    73.3900  73.3900  74.3602  74.3602  74.4419  74.4419  74.4437  74.4437
    74.4915  74.4915  74.5023  74.5023  74.9754  74.9754  75.8113  75.8113
    76.6296  76.6296  76.7915  76.7915  76.8096  76.8096  76.8739  76.8739
    77.6484  77.6484  77.7185  77.7185  77.8788  77.8788  78.0856  78.0856
    79.0979  79.0979  79.2383  79.2383  79.3004  79.3004  79.8118  79.8118
    80.5345  80.5345  81.2297  81.2297  81.4912  81.4912  85.2054  85.2054
    86.2091  86.2091  86.9531  86.9531  86.9695  86.9695  87.4830  87.4830
    87.5890  87.5890  87.6362  87.6362  88.9593  88.9593  89.0757  89.0757
    89.3183  89.3183  89.3450  89.3450  90.1622  90.1622  90.1665  90.1665
    90.7130  90.7130  90.7629  90.7629  91.2550  91.2550  91.6704  91.6704
    91.6718  91.6718  92.0386  92.0386  92.3202  92.3202  93.2581  93.2581
    93.3194  93.3194  93.4454  93.4454  93.6485  93.6485  95.3495  95.3495
    96.0575  96.0575  96.2532  96.2532  96.4394  96.4394  96.5040  96.5040
    97.0011  97.0011  97.3602  97.3602  97.3991  97.3991  98.5646  98.5646
    98.6265  98.6265  99.4665  99.4665 100.2367 100.2367 100.7564 100.7564
   100.7638 100.7638 102.1576 102.1576 102.1754 102.1754 102.9205 102.9205
   103.4494 103.4494 103.7282 103.7282 104.2684 104.2684 104.2709 104.2709
   104.3584 104.3584 104.6056 104.6056 105.5015 105.5015 105.5691 105.5691
   105.7028 105.7028 107.2578 107.2578 107.9281 107.9281 107.9285 107.9285
   108.1611 108.1611 108.1721 108.1721 108.5078 108.5078 112.4031 112.4031
   112.4378 112.4378 112.7843 112.7843 115.4907 115.4907 116.4455 116.4455
   116.5573 116.5573 117.9523 117.9523 118.1263 118.1263 118.1717 118.1717
   118.4072 118.4072 118.7853 118.7853 119.1086 119.1086 120.5304 120.5304
   121.0544 121.0544 121.0787 121.0787 121.6405 121.6405 122.1984 122.1984
   123.0363 123.0363 123.0389 123.0389 123.8010 123.8010 124.5699 124.5699
   124.6301 124.6301 124.7846 124.7846 124.9455 124.9455 125.0363 125.0363
   125.6468 125.6468 126.2497 126.2497 126.3578 126.3578 126.6204 126.6204
   126.6978 126.6978 126.7283 126.7283 127.0240 127.0240 127.0388 127.0388
   127.8424 127.8424 127.9115 127.9115 128.4079 128.4079 128.4616 128.4616
   130.0475 130.0475 130.0821 130.0821 130.1044 130.1044 130.1218 130.1218
   130.6733 130.6733 130.8438 130.8438 130.8712 130.8712 131.4848 131.4848
   131.7404 131.7404 131.8156 131.8156 131.8465 131.8465 132.3480 132.3480
   132.4820 132.4820 132.6489 132.6489 132.6502 132.6502 132.7222 132.7222
   132.7628 132.7628 133.5862 133.5862 133.8499 133.8499 133.9218 133.9218
   133.9679 133.9679 134.0566 134.0566 134.1613 134.1613 134.6534 134.6534
   134.8615 134.8615 135.0432 135.0432 135.0461 135.0461 135.3143 135.3143
   135.4431 135.4431 135.8497 135.8497 135.9430 135.9430 136.2071 136.2071
   136.2574 136.2574 136.3964 136.3964

          k = 0.0667 0.0667 0.0667 (  7144 PWs)   bands (ev):

   -39.4675 -39.4675 -39.4675 -39.4675 -38.5736 -38.5736 -38.5736 -38.5736
   -38.5729 -38.5729  -9.9587  -9.9587  -9.9583  -9.9583  -7.3905  -7.3905
    -7.3873  -7.3873  -7.3863  -7.3863  -4.8186  -4.8186   1.6482   1.6482
     6.1274   6.1274   6.7506   6.7506   6.7847   6.7847  10.8677  10.8677
    12.9369  12.9369  13.0823  13.0823  14.7337  14.7337  14.8880  14.8880
    14.9793  14.9793  16.4220  16.4220  17.0079  17.0079  17.3466  17.3466
    17.3942  17.3942  26.8772  26.8772  27.3272  27.3272  27.4680  27.4680
    28.9154  28.9154  28.9476  28.9476  29.7107  29.7107  30.4986  30.4986
    30.5057  30.5057  30.6373  30.6373  32.2446  32.2446  32.2659  32.2659
    34.1657  34.1657  35.5240  35.5240  36.6898  36.6898  37.1385  37.1385
    39.0204  39.0204  39.2244  39.2244  39.3056  39.3056  39.3702  39.3702
    39.4240  39.4240  39.5645  39.5645  39.7626  39.7626  40.3942  40.3942
    40.7621  40.7621  42.0049  42.0049  42.4190  42.4190  42.4884  42.4884
    43.0763  43.0763  43.1414  43.1414  43.1465  43.1465  43.5851  43.5851
    44.6514  44.6514  44.6527  44.6527  45.0217  45.0217  46.1459  46.1459
    46.3457  46.3457  46.4136  46.4136  47.3419  47.3419  47.7613  47.7613
    47.7647  47.7647  48.5683  48.5683  48.6439  48.6439  49.1430  49.1430
    51.6646  51.6646  55.9110  55.9110  56.6516  56.6516  56.8064  56.8064
    60.5060  60.5060  60.5413  60.5413  63.1419  63.1419  63.1919  63.1919
    63.2321  63.2321  63.7454  63.7454  65.7623  65.7623  65.9947  65.9947
    66.0135  66.0135  67.0944  67.0944  67.5150  67.5150  68.5270  68.5270
    68.5874  68.5874  68.7718  68.7718  69.0292  69.0292  70.1983  70.1983
    70.1995  70.1995  70.2952  70.2952  70.6969  70.6969  70.6987  70.6987
    71.1145  71.1145  71.3851  71.3851  71.4672  71.4672  71.8840  71.8840
    72.2915  72.2915  72.8760  72.8760  72.9040  72.9040  73.7215  73.7215
    73.7239  73.7239  74.2618  74.2618  74.2691  74.2691  74.5297  74.5297
    74.5391  74.5391  74.7986  74.7986  74.9675  74.9675  75.5760  75.5760
    76.3171  76.3171  76.6961  76.6961  77.3955  77.3955  77.5186  77.5186
    77.5240  77.5240  77.9341  77.9341  78.2137  78.2137  78.2789  78.2789
    79.2179  79.2179  79.2386  79.2386  79.7155  79.7155  79.7302  79.7302
    80.8304  80.8304  81.6148  81.6148  81.8213  81.8213  85.2632  85.2632
    86.2254  86.2254  86.2792  86.2792  86.3120  86.3120  87.3409  87.3409
    87.4170  87.4170  87.5964  87.5964  88.6075  88.6075  88.8614  88.8614
    88.8991  88.8991  88.9607  88.9607  90.1409  90.1409  90.1647  90.1647
    90.6885  90.6885  90.7285  90.7285  91.2719  91.2719  91.8851  91.8851
    91.9387  91.9387  92.0027  92.0027  92.5570  92.5570  93.5127  93.5127
    93.5495  93.5495  93.9728  93.9728  94.3003  94.3003  95.5963  95.5963
    95.9232  95.9232  95.9476  95.9476  95.9668  95.9668  96.2785  96.2785
    97.0991  97.0991  97.3720  97.3720  97.4644  97.4644  98.2558  98.2558
    98.3570  98.3570  99.3114  99.3114 100.8547 100.8547 101.0644 101.0644
   101.1027 101.1027 102.5341 102.5341 102.5747 102.5747 103.0113 103.0113
   103.4189 103.4189 103.4869 103.4869 103.8084 103.8084 103.8107 103.8107
   103.8903 103.8903 104.1506 104.1506 105.4120 105.4120 105.6392 105.6392
   105.8535 105.8535 107.6250 107.6250 108.4096 108.4096 108.6029 108.6029
   108.6039 108.6039 108.8364 108.8364 108.9733 108.9733 112.1254 112.1254
   112.1798 112.1798 112.7976 112.7976 115.2267 115.2267 116.3227 116.3227
   116.4668 116.4668 117.7308 117.7308 117.7563 117.7563 117.7964 117.7964
   118.5884 118.5884 118.6909 118.6909 119.1997 119.1997 120.3215 120.3215
   120.9511 120.9511 121.2103 121.2103 121.9637 121.9637 122.2693 122.2693
   122.2739 122.2739 122.3936 122.3936 123.3608 123.3608 124.2663 124.2663
   124.4648 124.4648 124.5709 124.5709 124.9432 124.9432 125.2141 125.2141
   125.5063 125.5063 126.1788 126.1788 126.2081 126.2081 126.2146 126.2146
   126.5646 126.5646 126.6257 126.6257 127.2833 127.2833 127.2860 127.2860
   127.8433 127.8433 127.9340 127.9340 128.4248 128.4248 128.5144 128.5144
   129.6503 129.6503 129.6632 129.6632 130.0211 130.0211 130.0467 130.0467
   130.7409 130.7409 130.7471 130.7471 131.0152 131.0152 131.1317 131.1317
   131.1439 131.1439 131.7080 131.7080 131.7430 131.7430 132.1787 132.1787
   132.1890 132.1890 132.2235 132.2235 132.5311 132.5311 132.5408 132.5408
   132.6304 132.6304 133.4028 133.4028 133.5050 133.5050 133.5246 133.5246
   133.6402 133.6402 134.2737 134.2737 134.4322 134.4322 134.6374 134.6374
   134.7096 134.7096 134.8753 134.8753 134.8970 134.8970 135.4054 135.4054
   135.6204 135.6204 136.0491 136.0491 136.1335 136.1335 136.5891 136.5891
   136.6301 136.6301 136.6867 136.6867

          k = 0.0833 0.0833 0.0833 (  7126 PWs)   bands (ev):

   -39.4675 -39.4675 -39.4675 -39.4675 -38.5736 -38.5736 -38.5736 -38.5736
   -38.5729 -38.5729  -9.9588  -9.9588  -9.9581  -9.9581  -7.3903  -7.3903
    -7.3876  -7.3876  -7.3860  -7.3860  -4.8029  -4.8029   1.6011   1.6011
     6.1436   6.1436   6.7548   6.7548   6.8078   6.8078  10.7884  10.7884
    12.7712  12.7712  12.9727  12.9727  14.7052  14.7052  14.9419  14.9419
    15.0238  15.0238  16.5955  16.5955  17.1978  17.1978  17.4800  17.4800
    17.5436  17.5436  26.6105  26.6105  27.1047  27.1047  27.2400  27.2400
    28.7688  28.7688  28.8332  28.8332  29.7364  29.7364  30.5499  30.5499
    30.6144  30.6144  30.7173  30.7173  32.5778  32.5778  32.6052  32.6052
    34.3003  34.3003  35.3290  35.3290  36.4181  36.4181  37.0824  37.0824
    38.7398  38.7398  38.9658  38.9658  39.0799  39.0799  39.2316  39.2316
    39.2831  39.2831  39.3919  39.3919  39.5492  39.5492  40.4590  40.4590
    40.7635  40.7635  41.9844  41.9844  42.5758  42.5758  42.7843  42.7843
    43.3342  43.3342  43.4365  43.4365  43.4552  43.4552  43.6972  43.6972
    44.3822  44.3822  44.3838  44.3838  44.6880  44.6880  46.1066  46.1066
    46.2713  46.2713  46.7348  46.7348  47.5728  47.5728  48.2029  48.2029
    48.2078  48.2078  48.7410  48.7410  48.7906  48.7906  49.3641  49.3641
    52.0254  52.0254  55.7318  55.7318  56.4106  56.4106  56.6449  56.6449
    60.5384  60.5384  60.5839  60.5839  63.1216  63.1216  63.2027  63.2027
    63.2628  63.2628  63.9654  63.9654  65.2700  65.2700  65.4701  65.4701
    65.4875  65.4875  66.7497  66.7497  67.3474  67.3474  68.3100  68.3100
    68.3523  68.3523  68.6701  68.6701  68.9258  68.9258  69.8106  69.8106
    69.8162  69.8162  70.1936  70.1936  70.4917  70.4917  70.4974  70.4974
    71.2200  71.2200  71.6786  71.6786  71.8164  71.8164  72.1185  72.1185
    72.1416  72.1416  72.9062  72.9062  72.9475  72.9475  73.9186  73.9186
    73.9300  73.9300  74.1196  74.1196  74.1243  74.1243  74.7002  74.7002
    74.7066  74.7066  74.9385  74.9385  75.2149  75.2149  75.4656  75.4656
    76.0111  76.0111  76.4879  76.4879  76.8770  76.8770  78.2109  78.2109
    78.2286  78.2286  78.2304  78.2304  78.6544  78.6544  78.7364  78.7364
    79.2248  79.2248  79.2772  79.2772  79.5600  79.5600  80.3901  80.3901
    81.2084  81.2084  82.0224  82.0224  82.0908  82.0908  85.3073  85.3073
    85.4697  85.4697  85.4817  85.4817  86.2320  86.2320  87.2107  87.2107
    87.2709  87.2709  87.7367  87.7367  88.1464  88.1464  88.4376  88.4376
    88.4621  88.4621  88.9684  88.9684  90.0715  90.0715  90.1274  90.1274
    90.6469  90.6469  90.6828  90.6828  91.1394  91.1394  91.8133  91.8133
    92.1291  92.1291  92.1728  92.1728  93.0824  93.0824  93.8261  93.8261
    93.8519  93.8519  94.2691  94.2691  94.7004  94.7004  95.3445  95.3445
    95.4516  95.4516  95.9559  95.9559  95.9971  95.9971  96.1730  96.1730
    97.2408  97.2408  97.4368  97.4368  97.7013  97.7013  97.9857  97.9857
    98.1291  98.1291  99.2830  99.2830 101.3107 101.3107 101.4365 101.4365
   101.4813 101.4813 102.6022 102.6022 102.7697 102.7697 102.7806 102.7806
   103.0349 103.0349 103.2102 103.2102 103.4222 103.4222 103.6437 103.6437
   103.6707 103.6707 104.4113 104.4113 105.3973 105.3973 105.6504 105.6504
   106.2217 106.2217 107.9318 107.9318 108.6131 108.6131 109.2877 109.2877
   109.2935 109.2935 109.3060 109.3060 109.6536 109.6536 111.7908 111.7908
   111.8636 111.8636 112.8145 112.8145 114.8671 114.8671 116.2670 116.2670
   116.4291 116.4291 117.2960 117.2960 117.3134 117.3134 117.5847 117.5847
   118.5650 118.5650 118.7433 118.7433 119.3014 119.3014 119.8985 119.8985
   120.9797 120.9797 121.1335 121.1335 121.5206 121.5206 121.6379 121.6379
   122.3619 122.3619 122.6031 122.6031 122.8971 122.8971 123.5266 123.5266
   124.3076 124.3076 124.4887 124.4887 124.6684 124.6684 125.0376 125.0376
   125.6301 125.6301 125.9102 125.9102 125.9889 125.9889 126.2738 126.2738
   126.5083 126.5083 126.5676 126.5676 127.4780 127.4780 127.4907 127.4907
   127.8187 127.8187 128.0093 128.0093 128.3674 128.3674 128.4550 128.4550
   129.2819 129.2819 129.2828 129.2828 129.5185 129.5185 129.5240 129.5240
   129.9265 129.9265 129.9962 129.9962 130.8574 130.8574 131.2656 131.2656
   131.3384 131.3384 131.4200 131.4200 131.7889 131.7889 131.8926 131.8926
   131.8990 131.8990 132.5076 132.5076 132.5323 132.5323 132.6786 132.6786
   132.8616 132.8616 133.2285 133.2285 133.2400 133.2400 133.3868 133.3868
   133.5207 133.5207 134.4194 134.4194 134.5806 134.5806 134.6019 134.6019
   134.6535 134.6535 134.8167 134.8167 134.9965 134.9965 135.5687 135.5687
   135.8421 135.8421 136.1831 136.1831 136.3768 136.3768 136.9081 136.9081
   136.9189 136.9189 136.9940 136.9940

          k = 0.1000 0.1000 0.1000 (  7132 PWs)   bands (ev):

   -39.4675 -39.4675 -39.4675 -39.4675 -38.5736 -38.5736 -38.5736 -38.5736
   -38.5729 -38.5729  -9.9588  -9.9588  -9.9579  -9.9579  -7.3900  -7.3900
    -7.3879  -7.3879  -7.3857  -7.3857  -4.7838  -4.7838   1.5450   1.5450
     6.1624   6.1624   6.7600   6.7600   6.8356   6.8356  10.6960  10.6960
    12.5938  12.5938  12.8502  12.8502  14.6763  14.6763  15.0050  15.0050
    15.0787  15.0787  16.7867  16.7867  17.4113  17.4113  17.6450  17.6450
    17.7174  17.7174  26.3112  26.3112  26.8449  26.8449  26.9635  26.9635
    28.6706  28.6706  28.7661  28.7661  29.7678  29.7678  30.5875  30.5875
    30.6719  30.6719  30.8232  30.8232  32.9275  32.9275  32.9643  32.9643
    34.4368  34.4368  35.1167  35.1167  36.1233  36.1233  37.0083  37.0083
    38.4536  38.4536  38.6932  38.6932  38.8020  38.8020  39.0652  39.0652
    39.1503  39.1503  39.1918  39.1918  39.3417  39.3417  40.5603  40.5603
    40.8141  40.8141  41.8650  41.8650  42.7857  42.7857  43.0981  43.0981
    43.5617  43.5617  43.7212  43.7212  43.7688  43.7688  43.7954  43.7954
    44.1571  44.1571  44.1605  44.1605  44.4679  44.4679  46.0751  46.0751
    46.1984  46.1984  47.0750  47.0750  47.8277  47.8277  48.6269  48.6269
    48.6346  48.6346  48.9674  48.9674  48.9873  48.9873  49.5871  49.5871
    52.4438  52.4438  55.5289  55.5289  56.1486  56.1486  56.4791  56.4791
    60.5322  60.5322  60.5871  60.5871  63.0940  63.0940  63.2039  63.2039
    63.2835  63.2835  64.1926  64.1926  64.7475  64.7475  64.9759  64.9759
    64.9957  64.9957  66.4026  66.4026  67.1492  67.1492  67.9967  67.9967
    68.0212  68.0212  68.5269  68.5269  68.7575  68.7575  69.4014  69.4014
    69.4069  69.4069  70.0686  70.0686  70.3411  70.3411  70.3427  70.3427
    71.2430  71.2430  71.8898  71.8898  71.9954  71.9954  72.1118  72.1118
    72.4468  72.4468  73.0881  73.0881  73.1513  73.1513  73.8021  73.8021
    73.8250  73.8250  74.2269  74.2269  74.2377  74.2377  74.9061  74.9061
    74.9105  74.9105  74.9292  74.9292  75.3105  75.3105  75.4620  75.4620
    75.9275  75.9275  76.3160  76.3160  76.5570  76.5570  78.5781  78.5781
    78.6334  78.6334  78.6891  78.6891  79.1438  79.1438  79.2574  79.2574
    79.3524  79.3524  79.5139  79.5139  79.5860  79.5860  81.0711  81.0711
    81.6139  81.6139  82.3044  82.3044  82.4373  82.4373  84.6322  84.6322
    84.6352  84.6352  85.3403  85.3403  86.1495  86.1495  87.0780  87.0780
    87.1224  87.1224  87.6928  87.6928  87.8461  87.8461  88.0325  88.0325
    88.0476  88.0476  89.0684  89.0684  89.9358  89.9358  90.0295  90.0295
    90.6083  90.6083  90.6501  90.6501  90.8665  90.8665  91.8933  91.8933
    92.3210  92.3210  92.3946  92.3946  93.6144  93.6144  94.0573  94.0573
    94.1079  94.1079  94.4097  94.4097  94.7264  94.7264  94.7703  94.7703
    94.9155  94.9155  96.0679  96.0679  96.3330  96.3330  96.3563  96.3563
    97.4023  97.4023  97.4025  97.4025  97.7022  97.7022  98.1881  98.1881
    98.1892  98.1892  99.3173  99.3173 101.2889 101.2889 101.5873 101.5873
   102.1143 102.1143 102.3171 102.3171 102.4536 102.4536 102.6793 102.6793
   102.7773 102.7773 102.9087 102.9087 102.9699 102.9699 103.9055 103.9055
   103.9440 103.9440 104.9310 104.9310 105.4549 105.4549 105.7059 105.7059
   106.6935 106.6935 108.1516 108.1516 108.7372 108.7372 109.7049 109.7049
   109.9979 109.9979 109.9982 109.9982 110.4065 110.4065 111.4313 111.4313
   111.5196 111.5196 112.8350 112.8350 114.4120 114.4120 116.2762 116.2762
   116.4299 116.4299 116.8462 116.8462 116.8676 116.8676 117.3889 117.3889
   118.4025 118.4025 118.8396 118.8396 119.1366 119.1366 119.5449 119.5449
   120.5090 120.5090 120.6266 120.6266 121.3547 121.3547 121.5172 121.5172
   122.4187 122.4187 122.6723 122.6723 122.7652 122.7652 122.7664 122.7664
   123.9904 123.9904 124.2026 124.2026 124.4107 124.4107 124.8919 124.8919
   125.4862 125.4862 125.6402 125.6402 125.7208 125.7208 126.2431 126.2431
   126.4506 126.4506 127.0469 127.0469 127.5037 127.5037 127.5349 127.5349
   127.7882 127.7882 128.0260 128.0260 128.0678 128.0678 128.1137 128.1137
   128.7752 128.7752 128.8574 128.8574 129.1190 129.1190 129.1453 129.1453
   129.4104 129.4104 129.4647 129.4647 130.0340 130.0340 131.3104 131.3104
   131.3497 131.3497 131.3995 131.3995 131.8217 131.8217 131.8256 131.8256
   131.8826 131.8826 132.6211 132.6211 132.6666 132.6666 132.7541 132.7541
   132.9813 132.9813 133.0845 133.0845 133.0976 133.0976 133.5182 133.5182
   133.9983 133.9983 134.2586 134.2586 134.4997 134.4997 134.5280 134.5280
   134.9652 134.9652 135.0733 135.0733 135.2194 135.2194 135.7992 135.7992
   136.0981 136.0981 136.2638 136.2638 136.6642 136.6642 137.2045 137.2045
   137.2481 137.2481 137.3282 137.3282

          k = 0.1167 0.1167 0.1167 (  7141 PWs)   bands (ev):

   -39.4675 -39.4675 -39.4675 -39.4675 -38.5736 -38.5736 -38.5736 -38.5736
   -38.5729 -38.5729  -9.9588  -9.9588  -9.9576  -9.9576  -7.3899  -7.3899
    -7.3880  -7.3880  -7.3853  -7.3853  -4.7616  -4.7616   1.4807   1.4807
     6.1835   6.1835   6.7662   6.7662   6.8679   6.8679  10.5926  10.5926
    12.4099  12.4099  12.7183  12.7183  14.6506  14.6506  15.0771  15.0771
    15.1435  15.1435  16.9903  16.9903  17.6375  17.6375  17.8468  17.8468
    17.9121  17.9121  25.9932  25.9932  26.5533  26.5533  26.6537  26.6537
    28.6131  28.6131  28.7338  28.7338  29.8048  29.8048  30.6171  30.6171
    30.7030  30.7030  30.9317  30.9317  33.2715  33.2715  33.3277  33.3277
    34.5276  34.5276  34.9352  34.9352  35.8182  35.8182  36.8967  36.8967
    38.2069  38.2069  38.4131  38.4131  38.5083  38.5083  38.8490  38.8490
    39.0108  39.0108  39.0245  39.0245  39.1321  39.1321  40.6688  40.6688
    40.8921  40.8921  41.6836  41.6836  43.0178  43.0178  43.4128  43.4128
    43.5731  43.5731  43.7486  43.7486  43.8233  43.8233  44.1303  44.1303
    44.1552  44.1552  44.1605  44.1605  44.4515  44.4515  46.0538  46.0538
    46.1328  46.1328  47.4224  47.4224  48.0915  48.0915  48.9517  48.9517
    48.9528  48.9528  49.3215  49.3215  49.3223  49.3223  49.8335  49.8335
    52.8976  52.8976  55.3091  55.3091  55.8744  55.8744  56.3224  56.3224
    60.4724  60.4724  60.5371  60.5371  63.0571  63.0571  63.1650  63.1650
    63.2567  63.2567  64.0559  64.0559  64.5265  64.5265  64.5804  64.5804
    64.6022  64.6022  66.0475  66.0475  66.9244  66.9244  67.6133  67.6133
    67.6234  67.6234  68.2891  68.2891  68.4495  68.4495  69.0361  69.0361
    69.0998  69.0998  69.9557  69.9557  70.2483  70.2483  70.2574  70.2574
    71.2229  71.2229  71.6175  71.6175  72.2333  72.2333  72.3169  72.3169
    72.7614  72.7614  73.3927  73.3927  73.4580  73.4580  73.6472  73.6472
    73.6997  73.6997  74.3428  74.3428  74.3785  74.3785  74.8327  74.8327
    74.9143  74.9143  75.0952  75.0952  75.1311  75.1311  75.5245  75.5245
    75.9803  75.9803  76.2876  76.2876  76.8037  76.8037  78.6711  78.6711
    78.7239  78.7239  78.9904  78.9904  79.0743  79.0743  79.9544  79.9544
    79.9598  79.9598  80.0579  80.0579  80.0629  80.0629  81.7693  81.7693
    81.9966  81.9966  82.4838  82.4838  82.8252  82.8252  83.7902  83.7902
    83.8161  83.8161  85.3539  85.3539  86.0026  86.0026  86.9085  86.9085
    86.9431  86.9431  87.2466  87.2466  87.6681  87.6681  87.6763  87.6763
    87.8472  87.8472  89.2870  89.2870  89.7554  89.7554  89.8574  89.8574
    90.4932  90.4932  90.6507  90.6507  90.6951  90.6951  92.0664  92.0664
    92.5201  92.5201  92.6181  92.6181  93.8702  93.8702  94.0369  94.0369
    94.1244  94.1244  94.2297  94.2297  94.3296  94.3296  94.8282  94.8282
    94.9258  94.9258  95.9581  95.9581  96.5567  96.5567  96.5692  96.5692
    97.2272  97.2272  97.4121  97.4121  98.2365  98.2365  98.5067  98.5067
    98.5991  98.5991  99.3427  99.3427 101.0160 101.0160 101.4089 101.4089
   101.8881 101.8881 101.9662 101.9662 102.2597 102.2597 102.4213 102.4213
   102.7529 102.7529 103.1300 103.1300 103.1417 103.1417 104.3025 104.3025
   104.3636 104.3636 105.4162 105.4162 105.5912 105.5912 105.8134 105.8134
   107.2394 107.2394 108.2547 108.2547 108.7456 108.7456 110.0948 110.0948
   110.7161 110.7161 110.7169 110.7169 111.0910 111.0910 111.1878 111.1878
   111.1927 111.1927 112.8587 112.8587 113.8803 113.8803 116.2891 116.2891
   116.3023 116.3023 116.4276 116.4276 116.5913 116.5913 117.2322 117.2322
   118.1948 118.1948 118.5911 118.5911 118.8109 118.8109 119.2252 119.2252
   119.7992 119.7992 120.1547 120.1547 121.5385 121.5385 121.6479 121.6479
   121.9533 121.9533 122.0092 122.0092 122.7774 122.7774 122.7984 122.7984
   123.2680 123.2680 124.1411 124.1411 124.3616 124.3616 124.6367 124.6367
   125.1231 125.1231 125.2045 125.2045 125.7096 125.7096 126.2487 126.2487
   126.4206 126.4206 126.9383 126.9383 126.9715 126.9715 127.4994 127.4994
   127.6173 127.6173 127.6619 127.6619 127.7240 127.7240 128.0963 128.0963
   128.4915 128.4915 128.5032 128.5032 128.8588 128.8588 128.9753 128.9753
   129.3367 129.3367 129.3776 129.3776 129.3975 129.3975 131.2341 131.2341
   131.2496 131.2496 131.2678 131.2678 131.6972 131.6972 131.7005 131.7005
   131.7117 131.7117 132.6726 132.6726 132.7497 132.7497 132.7641 132.7641
   133.1714 133.1714 133.2115 133.2115 133.2231 133.2231 133.8935 133.8935
   133.9480 133.9480 134.4326 134.4326 134.4775 134.4775 134.7447 134.7447
   135.2816 135.2816 135.4364 135.4364 135.4383 135.4383 136.0951 136.0951
   136.3799 136.3799 136.3860 136.3860 136.9796 136.9796 137.4445 137.4445
   137.4791 137.4791 137.5745 137.5745

          k = 0.1333 0.1333 0.1333 (  7150 PWs)   bands (ev):

   -39.4675 -39.4675 -39.4675 -39.4675 -38.5736 -38.5736 -38.5736 -38.5736
   -38.5729 -38.5729  -9.9589  -9.9589  -9.9573  -9.9573  -7.3902  -7.3902
    -7.3878  -7.3878  -7.3849  -7.3849  -4.7362  -4.7362   1.4092   1.4092
     6.2065   6.2065   6.7733   6.7733   6.9044   6.9044  10.4801  10.4801
    12.2235  12.2235  12.5802  12.5802  14.6312  14.6312  15.1577  15.1577
    15.2178  15.2178  17.2029  17.2029  17.8663  17.8663  18.0892  18.0892
    18.1248  18.1248  25.6655  25.6655  26.2391  26.2391  26.3235  26.3235
    28.5860  28.5860  28.7254  28.7254  29.8474  29.8474  30.6423  30.6423
    30.7240  30.7240  31.0287  31.0287  33.5652  33.5652  33.6759  33.6759
    34.4871  34.4871  34.8848  34.8848  35.5209  35.5209  36.7387  36.7387
    38.0123  38.0123  38.1299  38.1299  38.2448  38.2448  38.5910  38.5910
    38.8589  38.8589  38.8969  38.8969  38.9192  38.9192  40.7706  40.7706
    40.9821  40.9821  41.4703  41.4703  43.1664  43.1664  43.4976  43.4976
    43.5547  43.5547  43.5849  43.5849  43.8586  43.8586  44.3684  44.3684
    44.4409  44.4409  44.5306  44.5306  44.5696  44.5696  46.0479  46.0479
    46.0812  46.0812  47.7704  47.7704  48.3447  48.3447  49.1590  49.1590
    49.1884  49.1884  49.7884  49.7884  49.7899  49.7899  50.1286  50.1286
    53.3609  53.3609  55.0791  55.0791  55.5952  55.5952  56.1924  56.1924
    60.3472  60.3472  60.4236  60.4236  63.0078  63.0078  63.0285  63.0285
    63.1167  63.1167  63.4895  63.4895  64.2475  64.2475  64.3056  64.3056
    64.8227  64.8227  65.7007  65.7007  66.6773  66.6773  67.1940  67.1940
    67.1948  67.1948  67.8946  67.8946  67.9833  67.9833  68.8144  68.8144
    68.9407  68.9407  69.8612  69.8612  70.1882  70.1882  70.2042  70.2042
    71.1753  71.1753  71.3186  71.3186  72.4055  72.4055  72.4682  72.4682
    73.0667  73.0667  73.4604  73.4604  73.5001  73.5001  73.7807  73.7807
    73.8976  73.8976  74.2928  74.2928  74.5081  74.5081  74.5181  74.5181
    74.9570  74.9570  75.0179  75.0179  75.1284  75.1284  75.6295  75.6295
    76.2475  76.2475  76.4916  76.4916  77.3255  77.3255  78.6094  78.6094
    78.6269  78.6269  78.8723  78.8723  79.4362  79.4362  80.6075  80.6075
    80.6078  80.6078  80.7727  80.7727  80.7910  80.7910  82.2518  82.2518
    82.4821  82.4821  82.6191  82.6191  82.7537  82.7537  83.0586  83.0586
    83.4574  83.4574  85.3457  85.3457  85.8070  85.8070  86.6674  86.6674
    86.7031  86.7031  86.8081  86.8081  87.3809  87.3809  87.3955  87.3955
    87.7224  87.7224  89.3474  89.3474  89.6227  89.6227  89.7876  89.7876
    90.2839  90.2839  90.6812  90.6812  90.7053  90.7053  92.2812  92.2812
    92.6986  92.6986  92.8355  92.8355  93.5740  93.5740  93.6300  93.6300
    93.7198  93.7198  93.7958  93.7958  94.7057  94.7057  95.2986  95.2986
    95.3538  95.3538  95.8456  95.8456  96.3800  96.3800  96.3844  96.3844
    97.3486  97.3486  97.6844  97.6844  98.6884  98.6884  98.9370  98.9370
    99.2031  99.2031  99.3431  99.3431 100.7101 100.7101 101.0536 101.0536
   101.4344 101.4344 101.4818 101.4818 101.7296 101.7296 102.2303 102.2303
   103.3963 103.3963 103.5256 103.5256 103.5616 103.5616 104.6874 104.6874
   104.7827 104.7827 105.8266 105.8266 105.8607 105.8607 105.9984 105.9984
   107.7847 107.7847 108.2392 108.2392 108.6036 108.6036 110.4545 110.4545
   110.8349 110.8349 110.9296 110.9296 111.4488 111.4488 111.4490 111.4490
   111.9868 111.9868 112.8855 112.8855 113.3125 113.3125 115.8597 115.8597
   115.9097 115.9097 116.4681 116.4681 116.5992 116.5992 117.0863 117.0863
   117.9288 117.9288 118.0242 118.0242 118.4286 118.4286 118.5658 118.5658
   119.3750 119.3750 119.9956 119.9956 121.2822 121.2822 121.4385 121.4385
   121.5709 121.5709 122.0708 122.0708 122.5078 122.5078 122.6414 122.6414
   122.6646 122.6646 124.1161 124.1161 124.2408 124.2408 124.3364 124.3364
   124.7488 124.7488 124.8329 124.8329 125.7846 125.7846 125.9528 125.9528
   125.9674 125.9674 126.3073 126.3073 126.4286 126.4286 127.0081 127.0081
   127.0711 127.0711 127.2823 127.2823 127.9080 127.9080 128.2136 128.2136
   128.3987 128.3987 128.5338 128.5338 128.9236 128.9236 129.0259 129.0259
   129.1087 129.1087 129.3769 129.3769 129.3941 129.3941 131.0818 131.0818
   131.1552 131.1552 131.1802 131.1802 131.4096 131.4096 131.5828 131.5828
   131.5994 131.5994 132.5556 132.5556 132.6888 132.6888 132.6912 132.6912
   133.4178 133.4178 133.4404 133.4404 133.4478 133.4478 133.7414 133.7414
   134.2530 134.2530 134.5714 134.5714 134.5929 134.5929 135.2525 135.2525
   135.3538 135.3538 135.8398 135.8398 135.8398 135.8398 136.4389 136.4389
   136.6040 136.6040 136.6571 136.6571 136.8826 136.8826 137.0159 137.0159
   137.2608 137.2608 137.8486 137.8486

          k = 0.1500 0.1500 0.1500 (  7153 PWs)   bands (ev):

   -39.4675 -39.4675 -39.4675 -39.4675 -38.5736 -38.5736 -38.5736 -38.5736
   -38.5729 -38.5729  -9.9590  -9.9590  -9.9570  -9.9570  -7.3907  -7.3907
    -7.3873  -7.3873  -7.3844  -7.3844  -4.7078  -4.7078   1.3312   1.3312
     6.2311   6.2311   6.7814   6.7814   6.9445   6.9445  10.3606  10.3606
    12.0370  12.0370  12.4382  12.4382  14.6202  14.6202  15.2470  15.2470
    15.3011  15.3011  17.4222  17.4222  18.0965  18.0965  18.3530  18.3530
    18.3678  18.3678  25.3346  25.3346  25.9105  25.9105  25.9816  25.9816
    28.5803  28.5803  28.7329  28.7329  29.8955  29.8955  30.6650  30.6650
    30.7396  30.7396  31.1118  31.1118  33.6865  33.6865  33.9692  33.9692
    34.4522  34.4522  34.9074  34.9074  35.2696  35.2696  36.5668  36.5668
    37.7760  37.7760  37.8462  37.8462  38.1088  38.1088  38.3151  38.3151
    38.6825  38.6825  38.7244  38.7244  38.7994  38.7994  40.8421  40.8421
    41.0740  41.0740  41.2621  41.2621  43.0450  43.0450  43.4033  43.4033
    43.4163  43.4163  43.6795  43.6795  44.1735  44.1735  44.6625  44.6625
    44.7326  44.7326  44.7484  44.7484  44.9188  44.9188  46.0534  46.0534
    46.0649  46.0649  48.1133  48.1133  48.5750  48.5750  49.3359  49.3359
    49.3998  49.3998  50.3002  50.3002  50.3018  50.3018  50.4889  50.4889
    53.8000  53.8000  54.8451  54.8451  55.3173  55.3173  56.1162  56.1162
    60.1494  60.1494  60.2396  60.2396  62.7464  62.7464  62.8390  62.8390
    62.9051  62.9051  62.9423  62.9423  64.1009  64.1009  64.1852  64.1852
    64.9507  64.9507  65.4917  65.4917  66.4140  66.4140  66.7646  66.7646
    66.7756  66.7756  67.3958  67.3958  67.4507  67.4507  68.7036  68.7036
    68.8560  68.8560  69.7837  69.7837  70.1379  70.1379  70.1602  70.1602
    71.0093  71.0093  71.0981  71.0981  72.5477  72.5477  72.5955  72.5955
    73.2467  73.2467  73.3700  73.3700  73.3996  73.3996  73.8072  73.8072
    74.1361  74.1361  74.2074  74.2074  74.4704  74.4704  74.5834  74.5834
    75.0317  75.0317  75.0699  75.0699  75.1833  75.1833  75.7676  75.7676
    76.6670  76.6670  76.8705  76.8705  77.8653  77.8653  78.4782  78.4782
    78.5226  78.5226  78.7198  78.7198  79.9050  79.9050  81.2072  81.2072
    81.2125  81.2125  81.5809  81.5809  81.5994  81.5994  81.9920  81.9920
    81.9978  81.9978  82.3592  82.3592  83.1907  83.1907  83.2072  83.2072
    83.7959  83.7959  85.2843  85.2843  85.6106  85.6106  86.3495  86.3495
    86.3778  86.3778  86.3937  86.3937  87.1769  87.1769  87.2153  87.2153
    87.5283  87.5283  89.0807  89.0807  89.3442  89.3442  89.9839  89.9839
    90.2845  90.2845  90.7281  90.7281  90.7536  90.7536  92.5090  92.5090
    92.7244  92.7244  92.9609  92.9609  93.0711  93.0711  93.2839  93.2839
    93.4321  93.4321  93.4545  93.4545  95.2588  95.2588  95.7218  95.7218
    95.7880  95.7880  95.8061  95.8061  96.0612  96.0612  96.0891  96.0891
    97.5989  97.5989  97.9934  97.9934  98.7229  98.7229  99.2347  99.2347
    99.5185  99.5185  99.7336  99.7336 100.6615 100.6615 100.8222 100.8222
   100.9999 100.9999 101.0248 101.0248 101.2321 101.2321 102.2255 102.2255
   103.9678 103.9678 104.0238 104.0238 104.0439 104.0439 105.0222 105.0222
   105.1460 105.1460 106.1758 106.1758 106.2458 106.2458 106.3233 106.3233
   107.8887 107.8887 108.3044 108.3044 108.4919 108.4919 110.5509 110.5509
   110.7517 110.7517 110.8900 110.8900 112.1918 112.1918 112.1923 112.1923
   112.6577 112.6577 112.9149 112.9149 112.9275 112.9275 115.4038 115.4038
   115.4572 115.4572 116.5203 116.5203 116.5993 116.5993 116.8674 116.8674
   117.5864 117.5864 117.5905 117.5905 117.7042 117.7042 117.8692 117.8692
   119.2416 119.2416 119.9206 119.9206 120.6089 120.6089 120.9503 120.9503
   121.5931 121.5931 121.6699 121.6699 122.2606 122.2606 122.3936 122.3936
   122.6397 122.6397 123.7748 123.7748 123.8407 123.8407 124.0390 124.0390
   124.6331 124.6331 124.6849 124.6849 124.9997 124.9997 125.0002 125.0002
   125.8847 125.8847 126.1402 126.1402 126.2293 126.2293 126.4980 126.4980
   126.5714 126.5714 126.6296 126.6296 127.9305 127.9305 128.3491 128.3491
   128.4968 128.4968 128.8140 128.8140 128.8767 128.8767 129.1464 129.1464
   129.2444 129.2444 129.5420 129.5420 129.5436 129.5436 130.8172 130.8172
   131.0086 131.0086 131.0600 131.0600 131.2075 131.2075 131.6028 131.6028
   131.6176 131.6176 132.4243 132.4243 132.5884 132.5884 132.5893 132.5893
   133.4424 133.4424 133.4895 133.4895 133.5299 133.5299 133.6034 133.6034
   134.5515 134.5515 134.8159 134.8159 134.8691 134.8691 135.2820 135.2820
   135.8863 135.8863 135.9185 135.9185 136.0033 136.0033 136.4886 136.4886
   136.5298 136.5298 136.8223 136.8223 136.9340 136.9340 136.9464 136.9464
   137.1868 137.1868 137.8502 137.8502

          k = 0.1667 0.1667 0.1667 (  7147 PWs)   bands (ev):

   -39.4675 -39.4675 -39.4675 -39.4675 -38.5736 -38.5736 -38.5736 -38.5736
   -38.5729 -38.5729  -9.9590  -9.9590  -9.9567  -9.9567  -7.3913  -7.3913
    -7.3867  -7.3867  -7.3840  -7.3840  -4.6766  -4.6766   1.2479   1.2479
     6.2569   6.2569   6.7904   6.7904   6.9878   6.9878  10.2357  10.2357
    11.8526  11.8526  12.2945  12.2945  14.6194  14.6194  15.3447  15.3447
    15.3933  15.3933  17.6468  17.6468  18.3325  18.3325  18.5943  18.5943
    18.6725  18.6725  25.0058  25.0058  25.5738  25.5738  25.6339  25.6339
    28.5891  28.5891  28.7505  28.7505  29.9491  29.9491  30.6861  30.6861
    30.7513  30.7513  31.1817  31.1817  33.5498  33.5498  34.1097  34.1097
    34.5114  34.5114  34.9524  34.9524  35.1598  35.1598  36.4423  36.4423
    37.4779  37.4779  37.5640  37.5640  38.0317  38.0317  38.0388  38.0388
    38.5181  38.5181  38.6070  38.6070  38.7056  38.7056  40.7994  40.7994
    41.1537  41.1537  41.1604  41.1604  42.8582  42.8582  43.2401  43.2401
    43.2672  43.2672  43.9433  43.9433  44.5227  44.5227  44.8932  44.8932
    44.9752  44.9752  45.0412  45.0412  45.3178  45.3178  46.0673  46.0673
    46.1167  46.1167  48.4348  48.4348  48.7926  48.7926  49.5039  49.5039
    49.6032  49.6032  50.8339  50.8339  50.8359  50.8359  50.9142  50.9142
    54.1657  54.1657  54.6138  54.6138  55.0466  55.0466  56.1380  56.1380
    59.8768  59.8768  59.9816  59.9816  62.2315  62.2315  62.4691  62.4691
    62.4877  62.4877  62.8553  62.8553  64.0326  64.0326  64.1305  64.1305
    64.7025  64.7025  65.6595  65.6595  66.1416  66.1416  66.3691  66.3691
    66.3922  66.3922  66.8629  66.8629  66.9022  66.9022  68.6460  68.6460
    68.8053  68.8053  69.7198  69.7198  70.0855  70.0855  70.1138  70.1138
    70.7017  70.7017  70.9757  70.9757  72.6742  72.6742  72.6992  72.6992
    72.9834  72.9834  73.2778  73.2778  73.3145  73.3145  73.7785  73.7785
    74.2241  74.2241  74.4094  74.4094  74.5049  74.5049  74.5616  74.5616
    75.1293  75.1293  75.3563  75.3563  75.4433  75.4433  75.9350  75.9350
    77.1465  77.1465  77.3397  77.3397  78.0292  78.0292  78.4256  78.4256
    78.5392  78.5392  78.7355  78.7355  80.3839  80.3839  81.0804  81.0804
    81.0960  81.0960  81.9133  81.9133  81.9245  81.9245  82.3130  82.3130
    82.4090  82.4090  82.4316  82.4316  83.5797  83.5797  83.9416  83.9416
    84.1755  84.1755  85.1079  85.1079  85.5034  85.5034  85.9573  85.9573
    85.9918  85.9918  86.0500  86.0500  87.0434  87.0434  87.0991  87.0991
    87.3018  87.3018  88.7476  88.7476  89.0360  89.0360  89.8966  89.8966
    90.6277  90.6277  90.7756  90.7756  90.8112  90.8112  92.4650  92.4650
    92.5170  92.5170  92.6416  92.6416  92.7694  92.7694  93.0183  93.0183
    93.5172  93.5172  93.5204  93.5204  95.5929  95.5929  95.6582  95.6582
    95.6590  95.6590  95.8197  95.8197  96.3594  96.3594  96.3972  96.3972
    97.8144  97.8144  98.2659  98.2659  98.4975  98.4975  99.2921  99.2921
    99.4915  99.4915  99.6244  99.6244 100.5570 100.5570 100.6004 100.6004
   100.7984 100.7984 101.2608 101.2608 101.2728 101.2728 102.3817 102.3817
   104.3934 104.3934 104.4750 104.4750 104.6952 104.6952 105.3293 105.3293
   105.4429 105.4429 106.6182 106.6182 106.6450 106.6450 106.7187 106.7187
   107.5752 107.5752 107.8865 107.8865 108.9946 108.9946 110.4509 110.4509
   110.6384 110.6384 111.0219 111.0219 112.4195 112.4195 112.9425 112.9425
   112.9433 112.9433 112.9462 112.9462 113.6944 113.6944 114.9619 114.9619
   115.0167 115.0167 116.0497 116.0497 116.7115 116.7115 116.7280 116.7280
   116.9096 116.9096 116.9254 116.9254 117.1487 117.1487 117.7330 117.7330
   119.1448 119.1448 119.8330 119.8330 120.0122 120.0122 120.4515 120.4515
   120.8913 120.8913 121.5484 121.5484 121.8452 121.8452 122.0526 122.0526
   122.9345 122.9345 123.2853 123.2853 123.2908 123.2908 123.8386 123.8386
   124.0605 124.0605 124.0752 124.0752 124.5219 124.5219 124.5433 124.5433
   125.7170 125.7170 125.8068 125.8068 125.8528 125.8528 126.0471 126.0471
   126.2898 126.2898 126.4080 126.4080 127.9835 127.9835 128.4864 128.4864
   128.6765 128.6765 128.8577 128.8577 129.0566 129.0566 129.1039 129.1039
   129.4842 129.4842 129.8511 129.8511 129.8613 129.8613 130.5286 130.5286
   130.8157 130.8157 130.8970 130.8970 131.1645 131.1645 131.7296 131.7296
   131.7304 131.7304 132.2803 132.2803 132.4788 132.4788 132.4818 132.4818
   133.2677 133.2677 133.3178 133.3178 133.4295 133.4295 133.6096 133.6096
   134.6191 134.6191 134.8932 134.8932 134.9954 134.9954 135.5545 135.5545
   135.6417 135.6417 135.7715 135.7715 136.2225 136.2225 136.4038 136.4038
   136.5249 136.5249 136.7761 136.7761 137.1859 137.1859 137.1962 137.1962
   137.1968 137.1968 137.8310 137.8310

          k = 0.1833 0.1833 0.1833 (  7159 PWs)   bands (ev):

   -39.4675 -39.4675 -39.4675 -39.4675 -38.5736 -38.5736 -38.5736 -38.5736
   -38.5729 -38.5729  -9.9591  -9.9591  -9.9563  -9.9563  -7.3920  -7.3920
    -7.3860  -7.3860  -7.3834  -7.3834  -4.6428  -4.6428   1.1599   1.1599
     6.2839   6.2839   6.8004   6.8004   7.0340   7.0340  10.1072  10.1072
    11.6714  11.6714  12.1508  12.1508  14.6298  14.6298  15.4510  15.4510
    15.4941  15.4941  17.8750  17.8750  18.5775  18.5775  18.8470  18.8470
    18.9952  18.9952  24.6836  24.6836  25.2333  25.2333  25.2842  25.2842
    28.6069  28.6069  28.7741  28.7741  30.0081  30.0081  30.7063  30.7063
    30.7594  30.7594  31.2400  31.2400  33.2888  33.2888  34.0082  34.0082
    34.3791  34.3791  35.1556  35.1556  35.2766  35.2766  36.3953  36.3953
    37.1618  37.1618  37.2847  37.2847  37.7454  37.7454  37.8415  37.8415
    38.5124  38.5124  38.5275  38.5275  38.6513  38.6513  40.6154  40.6154
    41.1816  41.1816  41.2353  41.2353  42.6843  42.6843  43.1025  43.1025
    43.1408  43.1408  44.2070  44.2070  44.8673  44.8673  45.0630  45.0630
    45.2684  45.2684  45.2959  45.2959  45.7265  45.7265  46.1526  46.1526
    46.2190  46.2190  48.6873  48.6873  49.0488  49.0488  49.6689  49.6689
    49.7992  49.7992  51.3779  51.3779  51.3862  51.3862  51.3965  51.3965
    54.3816  54.3816  54.4143  54.4143  54.7891  54.7891  56.3075  56.3075
    59.5332  59.5332  59.6512  59.6512  61.6275  61.6275  62.1044  62.1044
    62.1228  62.1228  62.7406  62.7406  63.9447  63.9447  64.0387  64.0387
    64.3143  64.3143  65.8693  65.8693  65.9394  65.9394  66.0583  66.0583
    66.0866  66.0866  66.3402  66.3402  66.3604  66.3604  68.6181  68.6181
    68.7757  68.7757  69.6641  69.6641  70.0265  70.0265  70.0606  70.0606
    70.4041  70.4041  70.7784  70.7784  72.5848  72.5848  72.7439  72.7439
    72.7552  72.7552  73.0837  73.0837  73.2775  73.2775  74.0355  74.0355
    74.1928  74.1928  74.4044  74.4044  74.6477  74.6477  74.6503  74.6503
    75.2425  75.2425  75.7614  75.7614  75.8370  75.8370  76.1293  76.1293
    77.6005  77.6005  77.8591  77.8591  77.8774  77.8774  78.3224  78.3224
    78.4317  78.4317  79.2918  79.2918  80.2637  80.2637  80.2825  80.2825
    80.8355  80.8355  82.2133  82.2133  82.5349  82.5349  82.5449  82.5449
    83.2369  83.2369  83.2706  83.2706  83.9612  83.9612  84.5080  84.5080
    84.6743  84.6743  84.8798  84.8798  85.4670  85.4670  85.5567  85.5567
    85.6361  85.6361  85.7248  85.7248  86.9625  86.9625  87.0226  87.0226
    87.0635  87.0635  88.3894  88.3894  88.7075  88.7075  89.8053  89.8053
    90.8014  90.8014  90.8231  90.8231  90.9276  90.9276  91.9684  91.9684
    92.1377  92.1377  92.4673  92.4673  92.4737  92.4737  93.1650  93.1650
    93.7204  93.7204  93.7291  93.7291  95.2343  95.2343  95.3228  95.3228
    95.5697  95.5697  96.3879  96.3879  96.8826  96.8826  96.9196  96.9196
    97.8389  97.8389  98.3288  98.3288  98.4764  98.4764  98.9370  98.9370
    99.1654  99.1654  99.5631  99.5631 100.1943 100.1943 100.2428 100.2428
   100.5160 100.5160 102.0902 102.0902 102.0910 102.0910 102.6411 102.6411
   104.7598 104.7598 104.8727 104.8727 105.3495 105.3495 105.6525 105.6525
   105.7041 105.7041 106.9709 106.9709 107.0725 107.0725 107.0856 107.0856
   107.3333 107.3333 107.4559 107.4559 109.4503 109.4503 110.3651 110.3651
   110.5532 110.5532 110.7573 110.7573 112.5871 112.5871 112.9783 112.9783
   113.6771 113.6771 113.6814 113.6814 114.5474 114.5474 114.5649 114.5649
   114.6116 114.6116 115.3975 115.3975 116.0367 116.0367 116.0542 116.0542
   116.6071 116.6071 116.7657 116.7657 116.9060 116.9060 117.8057 117.8057
   119.0066 119.0066 119.5036 119.5036 119.6831 119.6831 119.9149 119.9149
   120.2070 120.2070 121.2453 121.2453 121.3128 121.3128 121.7852 121.7852
   122.4227 122.4227 122.6755 122.6755 123.0739 123.0739 123.3038 123.3038
   123.3711 123.3711 124.0761 124.0761 124.0897 124.0897 124.1345 124.1345
   125.0411 125.0411 125.5158 125.5158 125.5602 125.5602 126.1444 126.1444
   126.1868 126.1868 126.2961 126.2961 128.0122 128.0122 128.6563 128.6563
   128.8355 128.8355 128.9648 128.9648 129.1655 129.1655 129.1683 129.1683
   129.5886 129.5886 130.1512 130.1512 130.1801 130.1801 130.3443 130.3443
   130.6476 130.6476 130.7599 130.7599 131.3047 131.3047 131.8630 131.8630
   131.8691 131.8691 132.1167 132.1167 132.3673 132.3673 132.3732 132.3732
   132.9338 132.9338 133.1074 133.1074 133.3373 133.3373 133.5096 133.5096
   134.2945 134.2945 134.3780 134.3780 135.0688 135.0688 135.7765 135.7765
   135.7773 135.7773 135.8632 135.8632 136.0065 136.0065 136.1383 136.1383
   136.2602 136.2602 136.9477 136.9477 137.4378 137.4378 137.6124 137.6124
   137.6233 137.6233 138.0102 138.0102

          k = 0.2000 0.2000 0.2000 (  7168 PWs)   bands (ev):

   -39.4675 -39.4675 -39.4675 -39.4675 -38.5736 -38.5736 -38.5736 -38.5736
   -38.5729 -38.5729  -9.9592  -9.9592  -9.9559  -9.9559  -7.3928  -7.3928
    -7.3853  -7.3853  -7.3829  -7.3829  -4.6065  -4.6065   1.0684   1.0684
     6.3120   6.3120   6.8112   6.8112   7.0824   7.0824   9.9763   9.9763
    11.4946  11.4946  12.0082  12.0082  14.6522  14.6522  15.5657  15.5657
    15.6033  15.6033  18.1051  18.1051  18.8320  18.8320  19.1092  19.1092
    19.3306  19.3306  24.3728  24.3728  24.8924  24.8924  24.9352  24.9352
    28.6292  28.6292  28.8000  28.8000  30.0723  30.0723  30.7256  30.7256
    30.7636  30.7636  31.2883  31.2883  32.9903  32.9903  33.7586  33.7586
    34.0698  34.0698  35.4436  35.4436  35.5195  35.5195  36.4016  36.4016
    36.8416  36.8416  37.0092  37.0092  37.4588  37.4588  37.5311  37.5311
    38.4499  38.4499  38.5428  38.5428  38.7756  38.7756  40.4019  40.4019
    41.2404  41.2404  41.2935  41.2935  42.5317  42.5317  42.9953  42.9953
    43.0439  43.0439  44.4472  44.4472  45.1662  45.1662  45.2231  45.2231
    45.5214  45.5214  45.5504  45.5504  46.1439  46.1439  46.3359  46.3359
    46.3860  46.3860  48.8433  48.8433  49.3782  49.3782  49.8318  49.8318
    49.9845  49.9845  51.8959  51.8959  51.9501  51.9501  51.9509  51.9509
    54.1843  54.1843  54.5083  54.5083  54.5514  54.5514  56.6294  56.6294
    59.1282  59.1282  59.2559  59.2559  61.0291  61.0291  61.7506  61.7506
    61.7680  61.7680  62.5904  62.5904  63.7625  63.7625  63.8401  63.8401
    63.8984  63.8984  65.6074  65.6074  65.7296  65.7296  65.7818  65.7818
    65.8744  65.8744  65.9522  65.9522  66.3268  66.3268  68.6107  68.6107
    68.7617  68.7617  69.6055  69.6055  69.9611  69.9611  70.0001  70.0001
    70.1210  70.1210  70.4778  70.4778  72.2410  72.2410  72.6428  72.6428
    72.6766  72.6766  73.0882  73.0882  73.3332  73.3332  74.1938  74.1938
    74.3125  74.3125  74.3572  74.3572  74.7912  74.7912  74.7922  74.7922
    75.3668  75.3668  76.2093  76.2093  76.2763  76.2763  76.3481  76.3481
    77.4929  77.4929  78.1991  78.1991  78.2535  78.2535  78.3004  78.3004
    78.4166  78.4166  79.4555  79.4555  79.4802  79.4802  79.9098  79.9098
    81.1520  81.1520  82.1368  82.1368  83.1632  83.1632  83.1681  83.1681
    84.0173  84.0173  84.1132  84.1132  84.2848  84.2848  84.6924  84.6924
    84.7200  84.7200  85.0544  85.0544  85.3432  85.3432  85.4569  85.4569
    85.5224  85.5224  85.5262  85.5262  86.8191  86.8191  86.9379  86.9379
    86.9816  86.9816  88.0230  88.0230  88.3659  88.3659  89.7317  89.7317
    90.7703  90.7703  90.8017  90.8017  90.9788  90.9788  91.4256  91.4256
    91.9080  91.9080  92.2279  92.2279  92.3451  92.3451  93.4304  93.4304
    93.8886  93.8886  93.9143  93.9143  94.9074  94.9074  95.0413  95.0413
    95.5328  95.5328  96.9632  96.9632  97.3621  97.3621  97.4466  97.4466
    97.6554  97.6554  98.2586  98.2586  98.5247  98.5247  98.6101  98.6101
    98.7113  98.7113  99.4119  99.4119  99.9230  99.9230  99.9945  99.9945
   100.5135 100.5135 102.9542 102.9542 102.9682 102.9682 102.9747 102.9747
   105.0534 105.0534 105.1823 105.1823 105.8899 105.8899 105.9666 105.9666
   106.0059 106.0059 106.7599 106.7599 106.8977 106.8977 107.4178 107.4178
   107.7238 107.7238 107.7279 107.7279 109.8313 109.8313 110.2818 110.2818
   110.2930 110.2930 110.4688 110.4688 113.0087 113.0087 113.0635 113.0635
   113.9802 113.9802 114.0162 114.0162 114.6155 114.6155 114.6156 114.6156
   114.6545 114.6545 115.2517 115.2517 115.2776 115.2776 115.4702 115.4702
   115.9722 115.9722 116.7715 116.7715 117.0204 117.0204 117.8419 117.8419
   118.8027 118.8027 119.0754 119.0754 119.2015 119.2015 119.3764 119.3764
   119.9009 119.9009 120.6405 120.6405 120.6601 120.6601 121.4779 121.4779
   121.7201 121.7201 122.1336 122.1336 122.5614 122.5614 122.8815 122.8815
   122.9310 122.9310 123.5174 123.5174 123.5282 123.5282 124.2286 124.2286
   124.5988 124.5988 125.4344 125.4344 125.4527 125.4527 126.0645 126.0645
   126.1764 126.1764 126.3100 126.3100 127.9897 127.9897 128.7965 128.7965
   128.9000 128.9000 129.1001 129.1001 129.3066 129.3066 129.4168 129.4168
   129.4741 129.4741 130.2467 130.2467 130.3228 130.3228 130.3375 130.3375
   130.6580 130.6580 130.7731 130.7731 131.5919 131.5919 131.9160 131.9160
   131.9182 131.9182 131.9315 131.9315 132.2620 132.2620 132.2725 132.2725
   132.5078 132.5078 132.9041 132.9041 133.2611 133.2611 133.4118 133.4118
   133.8186 133.8186 133.8219 133.8219 134.9659 134.9659 135.2973 135.2973
   135.6353 135.6353 135.7689 135.7689 136.1438 136.1438 136.1601 136.1601
   136.7320 136.7320 137.3213 137.3213 137.4379 137.4379 138.0553 138.0553
   138.0607 138.0607 138.2017 138.2017

          k = 0.2167 0.2167 0.2167 (  7162 PWs)   bands (ev):

   -39.4675 -39.4675 -39.4675 -39.4675 -38.5736 -38.5736 -38.5736 -38.5736
   -38.5729 -38.5729  -9.9592  -9.9592  -9.9555  -9.9555  -7.3936  -7.3936
    -7.3845  -7.3845  -7.3823  -7.3823  -4.5682  -4.5682   0.9743   0.9743
     6.3409   6.3409   6.8229   6.8229   7.1326   7.1326   9.8444   9.8444
    11.3229  11.3229  11.8681  11.8681  14.6871  14.6871  15.6888  15.6888
    15.7208  15.7208  18.3343  18.3343  19.0955  19.0955  19.3794  19.3794
    19.6741  19.6741  24.0792  24.0792  24.5536  24.5536  24.5889  24.5889
    28.6513  28.6513  28.8246  28.8246  30.1417  30.1417  30.7443  30.7443
    30.7628  30.7628  31.3281  31.3281  32.6824  32.6824  33.4602  33.4602
    33.6805  33.6805  35.7250  35.7250  35.7787  35.7787  36.3861  36.3861
    36.5617  36.5617  36.7383  36.7383  37.1736  37.1736  37.1753  37.1753
    38.4326  38.4326  38.5372  38.5372  39.0373  39.0373  40.2035  40.2035
    41.2908  41.2908  41.3308  41.3308  42.4001  42.4001  42.9226  42.9226
    42.9791  42.9791  44.6487  44.6487  45.3459  45.3459  45.3738  45.3738
    45.8011  45.8011  45.8271  45.8271  46.5692  46.5692  46.6053  46.6053
    46.6192  46.6192  48.9405  48.9405  49.7488  49.7488  49.9918  49.9918
    50.1539  50.1539  52.4162  52.4162  52.5256  52.5256  52.5257  52.5257
    54.0058  54.0058  54.3408  54.3408  54.5236  54.5236  57.0448  57.0448
    58.6763  58.6763  58.8076  58.8076  60.4583  60.4583  61.4062  61.4062
    61.4261  61.4261  62.3975  62.3975  63.4517  63.4517  63.4826  63.4826
    63.5192  63.5192  65.2324  65.2324  65.2788  65.2788  65.3662  65.3662
    65.7856  65.7856  65.8834  65.8834  66.6444  66.6444  68.6186  68.6186
    68.7596  68.7596  69.5049  69.5049  69.8552  69.8552  69.8931  69.8931
    69.9344  69.9344  70.1061  70.1061  72.0051  72.0051  72.4029  72.4029
    72.5117  72.5117  73.2224  73.2224  73.4678  73.4678  74.2478  74.2478
    74.3549  74.3549  74.5825  74.5825  74.9309  74.9309  74.9318  74.9318
    75.4997  75.4997  76.5889  76.5889  76.6657  76.6657  76.7250  76.7250
    77.2323  77.2323  78.0212  78.0212  78.0539  78.0539  78.6816  78.6816
    78.7044  78.7044  78.9075  78.9075  79.0379  79.0379  80.5153  80.5153
    81.1308  81.1308  82.2580  82.2580  83.7313  83.7313  83.7355  83.7355
    84.2800  84.2800  84.6079  84.6079  84.6087  84.6087  84.6970  84.6970
    84.8964  84.8964  84.9415  84.9415  85.3510  85.3510  85.4536  85.4536
    85.5959  85.5959  86.2498  86.2498  86.5758  86.5758  86.9726  86.9726
    86.9887  86.9887  87.6707  87.6707  88.0183  88.0183  89.6642  89.6642
    90.6480  90.6480  90.6685  90.6685  90.8343  90.8343  90.8887  90.8887
    91.8267  91.8267  92.1121  92.1121  92.3048  92.3048  93.7088  93.7088
    93.8939  93.8939  93.9257  93.9257  94.7607  94.7607  94.9259  94.9259
    95.5429  95.5429  97.2741  97.2741  97.5456  97.5456  97.8315  97.8315
    97.8449  97.8449  98.1188  98.1188  98.2142  98.2142  98.4937  98.4937
    98.5909  98.5909  99.1027  99.1027  99.7970  99.7970  99.9166  99.9166
   100.7062 100.7062 103.2977 103.2977 103.7961 103.7961 103.7971 103.7971
   105.3072 105.3072 105.4100 105.4100 105.7884 105.7884 105.9852 105.9852
   106.6634 106.6634 106.8303 106.8303 106.8376 106.8376 107.5557 107.5557
   108.2652 108.2652 108.2807 108.2807 109.8738 109.8738 110.1136 110.1136
   110.2460 110.2460 110.3740 110.3740 113.0317 113.0317 113.5954 113.5954
   113.6129 113.6129 113.6376 113.6376 114.0054 114.0054 114.5144 114.5144
   114.5506 114.5506 115.2713 115.2713 115.3685 115.3685 115.3692 115.3692
   116.2401 116.2401 116.8808 116.8808 117.0753 117.0753 117.7191 117.7191
   118.5014 118.5014 118.5324 118.5324 118.7049 118.7049 118.9041 118.9041
   119.7820 119.7820 119.8672 119.8672 119.9752 119.9752 120.9985 120.9985
   121.0988 121.0988 121.6994 121.6994 121.9800 121.9800 122.5334 122.5334
   122.6724 122.6724 122.9454 122.9454 123.0259 123.0259 123.4317 123.4317
   124.9907 124.9907 125.3643 125.3643 125.4733 125.4733 126.0014 126.0014
   126.0562 126.0562 126.4797 126.4797 127.9114 127.9114 128.8837 128.8837
   128.9583 128.9583 129.0987 129.0987 129.2454 129.2454 129.6923 129.6923
   129.7254 129.7254 130.1355 130.1355 130.2720 130.2720 130.2955 130.2955
   130.8753 130.8753 130.9148 130.9148 131.6629 131.6629 131.7473 131.7473
   131.7507 131.7507 131.8119 131.8119 132.1853 132.1853 132.1994 132.1994
   132.2479 132.2479 132.7187 132.7187 133.2504 133.2504 133.3791 133.3791
   133.4299 133.4299 133.4458 133.4458 134.6512 134.6512 134.7664 134.7664
   135.1919 135.1919 135.8258 135.8258 136.5511 136.5511 136.5562 136.5562
   137.0561 137.0561 137.4460 137.4460 137.6996 137.6996 138.1902 138.1902
   138.4368 138.4368 138.4924 138.4924

          k = 0.2333 0.2333 0.2333 (  7159 PWs)   bands (ev):

   -39.4675 -39.4675 -39.4675 -39.4675 -38.5736 -38.5736 -38.5736 -38.5736
   -38.5729 -38.5729  -9.9593  -9.9593  -9.9551  -9.9551  -7.3945  -7.3945
    -7.3837  -7.3837  -7.3818  -7.3818  -4.5279  -4.5279   0.8783   0.8783
     6.3707   6.3707   6.8353   6.8353   7.1842   7.1842   9.7126   9.7126
    11.1569  11.1569  11.7314  11.7314  14.7348  14.7348  15.8202  15.8202
    15.8463  15.8463  18.5592  18.5592  19.3663  19.3663  19.6560  19.6560
    20.0217  20.0217  23.8096  23.8096  24.2190  24.2190  24.2471  24.2471
    28.6681  28.6681  28.8436  28.8436  30.2161  30.2161  30.7557  30.7557
    30.7621  30.7621  31.3605  31.3605  32.3765  32.3765  33.1523  33.1523
    33.2566  33.2566  35.9229  35.9229  36.0032  36.0032  36.1637  36.1637
    36.4727  36.4727  36.5219  36.5219  36.8050  36.8050  36.8916  36.8916
    38.4762  38.4762  38.5764  38.5764  39.3349  39.3349  40.0491  40.0491
    41.3221  41.3221  41.3455  41.3455  42.2876  42.2876  42.8868  42.8868
    42.9466  42.9466  44.8043  44.8043  45.4290  45.4290  45.5172  45.5172
    46.1134  46.1134  46.1467  46.1467  46.9034  46.9034  46.9249  46.9249
    47.0019  47.0019  49.0064  49.0064  50.0995  50.0995  50.1835  50.1835
    50.3015  50.3015  52.9124  52.9124  53.1106  53.1106  53.1109  53.1109
    53.8731  53.8731  54.1657  54.1657  54.5125  54.5125  57.4650  57.4650
    58.1994  58.1994  58.3205  58.3205  59.9524  59.9524  61.0665  61.0665
    61.0920  61.0920  62.1561  62.1561  63.0351  63.0351  63.0744  63.0744
    63.1067  63.1067  64.7293  64.7293  64.7781  64.7781  65.1547  65.1547
    65.8077  65.8077  65.9191  65.9191  66.9522  66.9522  68.6358  68.6358
    68.7664  68.7664  69.2288  69.2288  69.6074  69.6074  69.8185  69.8185
    69.8448  69.8448  69.8668  69.8668  71.8490  71.8490  72.1460  72.1460
    72.2944  72.2944  73.3890  73.3890  73.6446  73.6446  74.3396  74.3396
    74.3981  74.3981  74.8444  74.8444  75.0694  75.0694  75.0698  75.0698
    75.6403  75.6403  76.8491  76.8491  76.9584  76.9584  77.1079  77.1079
    77.1386  77.1386  77.5581  77.5581  77.5725  77.5725  78.3033  78.3033
    78.3689  78.3689  79.4495  79.4495  79.6138  79.6138  80.8085  80.8085
    81.0702  81.0702  82.5143  82.5143  83.9989  83.9989  84.0003  84.0003
    84.3088  84.3088  84.3945  84.3945  84.5580  84.5580  84.5786  84.5786
    85.3810  85.3810  85.4706  85.4706  85.6177  85.6177  85.9145  85.9145
    85.9730  85.9730  86.3414  86.3414  86.9568  86.9568  87.0205  87.0205
    87.1348  87.1348  87.4148  87.4148  87.6809  87.6809  89.5887  89.5887
    90.3578  90.3578  90.4402  90.4402  90.4441  90.4441  90.6366  90.6366
    91.8433  91.8433  92.1254  92.1254  92.2427  92.2427  93.6478  93.6478
    93.6754  93.6754  93.9967  93.9967  94.8677  94.8677  95.0291  95.0291
    95.6083  95.6083  96.9702  96.9702  97.4583  97.4583  97.6819  97.6819
    98.1349  98.1349  98.2308  98.2308  98.2802  98.2802  98.6780  98.6780
    98.7149  98.7149  98.7895  98.7895  99.8222  99.8222  99.9924  99.9924
   100.9579 100.9579 103.6472 103.6472 104.2850 104.2850 104.3292 104.3292
   105.6351 105.6351 105.6431 105.6431 105.7030 105.7030 105.7728 105.7728
   107.1709 107.1709 107.1740 107.1740 107.3203 107.3203 107.4089 107.4089
[...]
    41.7410  41.7410  41.9711  41.9711  44.3334  44.3334  44.8158  44.8158
    45.0168  45.0168  46.0000  46.0000  46.6642  46.6642  47.3424  47.3424
    48.6191  48.6191  49.7896  49.7896  50.0458  50.0458  50.0532  50.0532
    50.9936  50.9936  51.0300  51.0300  52.1894  52.1894  52.2734  52.2734
    52.7962  52.7962  53.1523  53.1523  53.9538  53.9538  54.0920  54.0920
    55.2954  55.2954  55.5712  55.5712  55.8231  55.8231  56.1204  56.1204
    56.2373  56.2373  57.2428  57.2428  58.4242  58.4242  58.9077  58.9077
    59.3389  59.3389  60.5712  60.5712  61.7188  61.7188  62.5246  62.5246
    62.6804  62.6804  63.0397  63.0397  63.2517  63.2517  63.8654  63.8654
    63.9837  63.9837  64.2772  64.2772  65.4589  65.4589  65.8723  65.8723
    66.1908  66.1908  66.4436  66.4436  66.5670  66.5670  66.8948  66.8948
    68.1847  68.1847  68.3941  68.3941  68.7708  68.7708  69.1595  69.1595
    70.2579  70.2579  70.3691  70.3691  70.5431  70.5431  70.9889  70.9889
    72.2231  72.2231  72.9269  72.9269  73.2279  73.2279  74.7789  74.7789
    76.0726  76.0726  76.9491  76.9491  77.5461  77.5461  77.8272  77.8272
    78.1997  78.1997  78.9908  78.9908  79.1103  79.1103  79.5218  79.5218
    80.1615  80.1615  80.4635  80.4635  80.5551  80.5551  81.4476  81.4476
    81.6711  81.6711  81.7914  81.7914  81.9028  81.9028  82.6081  82.6081
    82.6444  82.6444  83.7094  83.7094  83.8321  83.8321  84.8106  84.8106
    85.2863  85.2863  86.0210  86.0210  86.4392  86.4392  86.5178  86.5178
    87.1471  87.1471  87.3058  87.3058  88.9396  88.9396  89.1433  89.1433
    89.5877  89.5877  89.6299  89.6299  91.2449  91.2449  92.0042  92.0042
    92.7949  92.7949  93.4226  93.4226  94.4818  94.4818  95.1653  95.1653
    95.2723  95.2723  95.6627  95.6627  96.0345  96.0345  97.2407  97.2407
    97.6702  97.6702  98.0619  98.0619  98.3723  98.3723  98.9223  98.9223
    98.9793  98.9793  99.3305  99.3305 100.1537 100.1537 100.4144 100.4144
   100.6517 100.6517 100.7183 100.7183 101.0620 101.0620 101.3241 101.3241
   101.5558 101.5558 101.6920 101.6920 101.7744 101.7744 102.7407 102.7407
   103.0856 103.0856 103.1984 103.1984 103.3440 103.3440 103.7847 103.7847
   104.2445 104.2445 104.7895 104.7895 105.3299 105.3299 105.6693 105.6693
   106.1713 106.1713 106.3912 106.3912 106.8786 106.8786 107.2617 107.2617
   107.3173 107.3173 107.7207 107.7207 107.9718 107.9718 108.7386 108.7386
   108.7747 108.7747 109.2805 109.2805 109.4190 109.4190 109.8591 109.8591
   110.1697 110.1697 110.6660 110.6660 111.1321 111.1321 111.1893 111.1893
   111.8668 111.8668 111.9213 111.9213 112.2631 112.2631 112.5124 112.5124
   113.3250 113.3250 113.8086 113.8086 113.8883 113.8883 114.7500 114.7500
   115.5628 115.5628 115.7374 115.7374 115.8542 115.8542 116.4396 116.4396
   116.6064 116.6064 116.8949 116.8949 117.5229 117.5229 117.7741 117.7741
   118.0823 118.0823 118.6372 118.6372 119.3355 119.3355 119.8900 119.8900
   120.9153 120.9153 121.5832 121.5832 121.9789 121.9789 122.0267 122.0267
   122.3176 122.3176 122.7368 122.7368 123.0480 123.0480 123.2927 123.2927
   123.7846 123.7846 123.8097 123.8097 123.9463 123.9463 124.4364 124.4364
   125.0849 125.0849 125.1529 125.1529 125.4949 125.4949 125.7472 125.7472
   126.1437 126.1437 126.4305 126.4305 126.5695 126.5695 127.1962 127.1962
   127.2662 127.2662 127.5882 127.5882 128.6461 128.6461 128.8982 128.8982
   129.9694 129.9694 130.5021 130.5021 130.8532 130.8532 131.5445 131.5445
   131.7410 131.7410 133.7694 133.7694 135.0193 135.0193 136.1911 136.1911
   136.7578 136.7578 136.9856 136.9856 137.3443 137.3443 137.5647 137.5647
   138.1032 138.1032 138.4838 138.4838 138.6691 138.6691 139.1471 139.1471
   140.1344 140.1344 140.3731 140.3731 140.8920 140.8920 141.1282 141.1282
   141.3036 141.3036 141.5283 141.5283

          k = 0.0333 0.9667 0.0333 (  7097 PWs)   bands (ev):

   -39.4675 -39.4675 -39.4675 -39.4675 -38.5736 -38.5736 -38.5736 -38.5736
   -38.5729 -38.5729  -9.9645  -9.9645  -9.9533  -9.9533  -7.4482  -7.4482
    -7.3894  -7.3894  -7.3569  -7.3569  -3.7296  -3.7296   0.9372   0.9372
     3.7614   3.7614   5.1041   5.1041   5.5734   5.5734  12.1616  12.1616
    12.3446  12.3446  13.8811  13.8811  13.9391  13.9391  19.1902  19.1902
    19.2842  19.2842  20.3284  20.3284  20.5450  20.5450  20.9815  20.9815
    21.7509  21.7509  21.9574  21.9574  22.9387  22.9387  23.2401  23.2401
    25.1325  25.1325  25.3228  25.3228  25.8958  25.8958  27.0669  27.0669
    29.7827  29.7827  29.9950  29.9950  31.7273  31.7273  32.1569  32.1569
    33.7631  33.7631  34.2942  34.2942  34.8258  34.8258  35.8642  35.8642
    36.3239  36.3239  36.9071  36.9071  37.1172  37.1172  37.3490  37.3490
    37.7411  37.7411  37.7838  37.7838  37.9237  37.9237  40.4912  40.4912
    41.6936  41.6936  41.8651  41.8651  44.4155  44.4155  45.1052  45.1052
    45.3427  45.3427  46.0424  46.0424  46.4940  46.4940  46.9985  46.9985
    48.7909  48.7909  50.1016  50.1016  50.1698  50.1698  50.3461  50.3461
    50.6886  50.6886  51.1417  51.1417  51.8909  51.8909  51.9599  51.9599
    53.1331  53.1331  53.3055  53.3055  53.9012  53.9012  53.9904  53.9904
    55.4348  55.4348  55.5133  55.5133  55.8440  55.8440  56.0501  56.0501
    56.0995  56.0995  56.8228  56.8228  58.3349  58.3349  58.8657  58.8657
    59.4960  59.4960  60.6680  60.6680  61.9181  61.9181  62.5670  62.5670
    62.8383  62.8383  63.0882  63.0882  63.1917  63.1917  64.1749  64.1749
    64.3563  64.3563  64.4603  64.4603  65.0890  65.0890  65.8394  65.8394
    65.9316  65.9316  66.0746  66.0746  66.1967  66.1967  67.2940  67.2940
    68.1781  68.1781  68.3189  68.3189  68.8462  68.8462  69.2495  69.2495
    70.0019  70.0019  70.3934  70.3934  70.6784  70.6784  70.7713  70.7713
    72.4473  72.4473  72.6934  72.6934  73.0166  73.0166  74.3721  74.3721
    75.9145  75.9145  77.2031  77.2031  77.9931  77.9931  78.2639  78.2639
    78.4167  78.4167  79.2130  79.2130  79.4259  79.4259  79.6880  79.6880
    80.0665  80.0665  80.3578  80.3578  80.8130  80.8130  81.1734  81.1734
    81.5384  81.5384  81.8219  81.8219  81.8740  81.8740  82.3617  82.3617
    82.4576  82.4576  83.3543  83.3543  83.3820  83.3820  84.6246  84.6246
    85.0762  85.0762  85.9445  85.9445  86.7173  86.7173  86.8019  86.8019
    87.1502  87.1502  87.2968  87.2968  88.9591  88.9591  88.9948  88.9948
    89.1636  89.1636  89.9476  89.9476  91.7231  91.7231  92.0468  92.0468
    92.7538  92.7538  93.2089  93.2089  93.9384  93.9384  95.4211  95.4211
    95.5494  95.5494  95.8254  95.8254  96.1890  96.1890  97.5829  97.5829
    97.6954  97.6954  98.1332  98.1332  98.2348  98.2348  99.2063  99.2063
    99.3266  99.3266  99.7197  99.7197 100.1700 100.1700 100.3277 100.3277
   100.5508 100.5508 100.7408 100.7408 100.8424 100.8424 101.2404 101.2404
   101.5508 101.5508 101.9300 101.9300 102.2775 102.2775 102.4307 102.4307
   102.6744 102.6744 102.9621 102.9621 103.2546 103.2546 103.6287 103.6287
   104.3264 104.3264 105.0918 105.0918 105.1700 105.1700 105.6439 105.6439
   105.7137 105.7137 106.4966 106.4966 107.0310 107.0310 107.1402 107.1402
   107.6712 107.6712 107.7586 107.7586 108.2403 108.2403 108.7344 108.7344
   108.9834 108.9834 109.3210 109.3210 109.5672 109.5672 109.7215 109.7215
   109.8528 109.8528 110.7189 110.7189 110.8895 110.8895 110.9546 110.9546
   111.2784 111.2784 111.6368 111.6368 112.5044 112.5044 112.6280 112.6280
   113.0938 113.0938 114.0386 114.0386 114.3465 114.3465 114.8583 114.8583
   115.1876 115.1876 115.4389 115.4389 115.6344 115.6344 116.2481 116.2481
   116.6039 116.6039 116.8779 116.8779 117.3335 117.3335 117.6798 117.6798
   118.0989 118.0989 118.4768 118.4768 119.4674 119.4674 120.0835 120.0835
   121.3159 121.3159 122.0735 122.0735 122.1762 122.1762 122.2741 122.2741
   122.3566 122.3566 122.9495 122.9495 123.4644 123.4644 123.6715 123.6715
   123.8317 123.8317 123.9301 123.9301 124.3429 124.3429 124.5369 124.5369
   124.6719 124.6719 124.8228 124.8228 125.3303 125.3303 125.6016 125.6016
   125.7999 125.7999 126.1402 126.1402 126.5542 126.5542 126.6182 126.6182
   127.0740 127.0740 127.5554 127.5554 128.0773 128.0773 128.3499 128.3499
   129.6213 129.6213 130.1989 130.1989 130.5451 130.5451 131.5560 131.5560
   131.7484 131.7484 133.7275 133.7275 135.4697 135.4697 136.7312 136.7312
   137.1361 137.1361 137.2548 137.2548 137.8153 137.8153 137.9071 137.9071
   138.6026 138.6026 138.6336 138.6336 138.9112 138.9112 139.6072 139.6072
   140.1962 140.1962 140.4091 140.4091 140.5330 140.5330 140.9504 140.9504
   141.1956 141.1956 141.3318 141.3318

          k = 0.0167 0.9833 0.0167 (  7101 PWs)   bands (ev):

   -39.4675 -39.4675 -39.4675 -39.4675 -38.5736 -38.5736 -38.5736 -38.5736
   -38.5729 -38.5729  -9.9646  -9.9646  -9.9533  -9.9533  -7.4487  -7.4487
    -7.3894  -7.3894  -7.3567  -7.3567  -3.7270  -3.7270   0.9499   0.9499
     3.7419   3.7419   5.0931   5.0931   5.5631   5.5631  12.1786  12.1786
    12.3365  12.3365  13.9116  13.9116  13.9654  13.9654  19.1579  19.1579
    19.2637  19.2637  20.5100  20.5100  20.6516  20.6516  20.8482  20.8482
    21.6244  21.6244  21.9405  21.9405  22.9504  22.9504  23.2619  23.2619
    25.0785  25.0785  25.2670  25.2670  25.9847  25.9847  26.8869  26.8869
    29.8848  29.8848  30.0285  30.0285  31.8108  31.8108  32.1220  32.1220
    33.6502  33.6502  34.3978  34.3978  34.9241  34.9241  36.0480  36.0480
    36.5764  36.5764  36.8580  36.8580  36.9424  36.9424  37.2140  37.2140
    37.4270  37.4270  37.8858  37.8858  37.9589  37.9589  40.3174  40.3174
    41.6486  41.6486  41.8086  41.8086  44.4626  44.4626  45.3289  45.3289
    45.6259  45.6259  46.1234  46.1234  46.3308  46.3308  46.6653  46.6653
    48.9436  48.9436  50.2427  50.2427  50.2877  50.2877  50.3975  50.3975
    50.7940  50.7940  51.2010  51.2010  51.6014  51.6014  51.6633  51.6633
    53.4073  53.4073  53.4789  53.4789  53.8227  53.8227  53.8742  53.8742
    55.4306  55.4306  55.6594  55.6594  55.8595  55.8595  55.9933  55.9933
    56.0396  56.0396  56.4114  56.4114  58.2887  58.2887  58.8481  58.8481
    59.5977  59.5977  60.7293  60.7293  62.0949  62.0949  62.4819  62.4819
    62.9600  62.9600  63.0552  63.0552  63.2710  63.2710  64.4609  64.4609
    64.7355  64.7355  64.7661  64.7661  64.8202  64.8202  65.5094  65.5094
    65.6277  65.6277  65.7072  65.7072  66.0785  66.0785  67.7560  67.7560
    68.0786  68.0786  68.3132  68.3132  68.8333  68.8333  69.3606  69.3606
    69.7332  69.7332  70.3231  70.3231  70.4794  70.4794  71.1989  71.1989
    72.1856  72.1856  72.6445  72.6445  73.1311  73.1311  74.0079  74.0079
    75.8159  75.8159  77.3629  77.3629  78.3486  78.3486  78.5231  78.5231
    78.7218  78.7218  79.1896  79.1896  79.5825  79.5825  79.6956  79.6956
    80.1766  80.1766  80.4599  80.4599  80.6090  80.6090  81.2784  81.2784
    81.4315  81.4315  81.8698  81.8698  81.9455  81.9455  82.0879  82.0879
    82.2983  82.2983  83.0419  83.0419  83.0893  83.0893  84.4030  84.4030
    84.9814  84.9814  85.9213  85.9213  86.9581  86.9581  87.0203  87.0203
    87.1614  87.1614  87.3945  87.3945  88.7050  88.7050  88.7170  88.7170
    89.0327  89.0327  90.3299  90.3299  92.1555  92.1555  92.2552  92.2552
    92.7227  92.7227  92.9413  92.9413  93.3107  93.3107  95.3278  95.3278
    95.8981  95.8981  96.2735  96.2735  96.3631  96.3631  97.3983  97.3983
    97.4310  97.4310  98.3031  98.3031  98.3905  98.3905  99.5673  99.5673
    99.6488  99.6488  99.9531  99.9531 100.1746 100.1746 100.2307 100.2307
   100.3941 100.3941 100.6990 100.6990 100.9641 100.9641 101.2509 101.2509
   101.4624 101.4624 101.8798 101.8798 101.9843 101.9843 102.1448 102.1448
   102.7729 102.7729 103.0377 103.0377 103.2761 103.2761 103.7404 103.7404
   104.3392 104.3392 104.6152 104.6152 105.2171 105.2171 105.5687 105.5687
   105.8229 105.8229 106.3778 106.3778 107.1090 107.1090 107.2226 107.2226
   107.5880 107.5880 108.3171 108.3171 108.5066 108.5066 108.6981 108.6981
   109.0599 109.0599 109.4780 109.4780 109.5200 109.5200 109.6669 109.6669
   109.7707 109.7707 110.4628 110.4628 110.7652 110.7652 110.8401 110.8401
   111.0539 111.0539 111.2390 111.2390 111.7093 111.7093 113.2315 113.2315
   113.7242 113.7242 114.2325 114.2325 114.5092 114.5092 114.9049 114.9049
   115.0299 115.0299 115.1359 115.1359 115.5055 115.5055 115.7253 115.7253
   116.5260 116.5260 116.8410 116.8410 117.0814 117.0814 117.8671 117.8671
   118.1812 118.1812 118.4868 118.4868 119.2725 119.2725 120.5771 120.5771
   121.5825 121.5825 121.8656 121.8656 122.3190 122.3190 122.5044 122.5044
   122.6141 122.6141 123.3455 123.3455 123.5707 123.5707 123.7429 123.7429
   124.0649 124.0649 124.1454 124.1454 124.2663 124.2663 124.4500 124.4500
   124.5114 124.5114 125.1357 125.1357 125.4352 125.4352 125.4635 125.4635
   125.6509 125.6509 125.8546 125.8546 126.1711 126.1711 126.5303 126.5303
   126.8088 126.8088 126.9931 126.9931 127.9148 127.9148 128.0852 128.0852
   129.2680 129.2680 130.0220 130.0220 130.3908 130.3908 131.6064 131.6064
   131.7903 131.7903 133.6694 133.6694 135.7091 135.7091 137.1435 137.1435
   137.4640 137.4640 137.6302 137.6302 138.0825 138.0825 138.2085 138.2085
   138.6345 138.6345 138.9097 138.9097 139.2798 139.2798 139.5606 139.5606
   139.8318 139.8318 140.2261 140.2261 140.5682 140.5682 140.8229 140.8229
   140.9969 140.9969 141.5398 141.5398

          k = 0.0000 1.0000 0.0000 (  7102 PWs)   bands (ev):

   -39.4675 -39.4675 -39.4675 -39.4675 -38.5736 -38.5736 -38.5736 -38.5736
   -38.5729 -38.5729  -9.9646  -9.9646  -9.9533  -9.9533  -7.4488  -7.4488
    -7.3894  -7.3894  -7.3567  -7.3567  -3.7262  -3.7262   0.9542   0.9542
     3.7354   3.7354   5.0894   5.0894   5.5597   5.5597  12.1833  12.1833
    12.3346  12.3346  13.9208  13.9208  13.9754  13.9754  19.1466  19.1466
    19.2569  19.2569  20.6792  20.6792  20.6815  20.6815  20.7067  20.7067
    21.5742  21.5742  21.9371  21.9371  22.9547  22.9547  23.2702  23.2702
    25.0591  25.0591  25.2480  25.2480  26.0267  26.0267  26.8150  26.8150
    29.9109  29.9109  30.0501  30.0501  31.8407  31.8407  32.1081  32.1081
    33.6101  33.6101  34.4313  34.4313  34.9598  34.9598  36.1300  36.1300
    36.7872  36.7872  36.8735  36.8735  36.8868  36.8868  36.9539  36.9539
    37.3441  37.3441  37.9215  37.9215  37.9845  37.9845  40.2547  40.2547
    41.6292  41.6292  41.7926  41.7926  44.4781  44.4781  45.4176  45.4176
    45.7581  45.7581  46.2282  46.2282  46.2575  46.2575  46.4444  46.4444
    49.0109  49.0109  50.2139  50.2139  50.2674  50.2674  50.5012  50.5012
    51.0535  51.0535  51.1164  51.1164  51.4658  51.4658  51.5153  51.5153
    53.5282  53.5282  53.5997  53.5997  53.7563  53.7563  53.7918  53.7918
    55.4104  55.4104  55.7638  55.7638  55.9693  55.9693  55.9754  55.9754
    56.0073  56.0073  56.1335  56.1335  58.2746  58.2746  58.8433  58.8433
    59.6324  59.6324  60.7505  60.7505  62.1746  62.1746  62.4538  62.4538
    62.9636  62.9636  62.9901  62.9901  63.3928  63.3928  64.6206  64.6206
    64.6229  64.6229  65.0667  65.0667  65.1030  65.1030  65.2283  65.2283
    65.3886  65.3886  65.4244  65.4244  66.0796  66.0796  68.0400  68.0400
    68.1002  68.1002  68.1776  68.1776  68.7988  68.7988  69.3303  69.3303
    69.7412  69.7412  70.2609  70.2609  70.3936  70.3936  71.6173  71.6173
    71.7506  71.7506  72.7151  72.7151  73.2359  73.2359  73.8172  73.8172
    75.7826  75.7826  77.4168  77.4168  78.5265  78.5265  78.5994  78.5994
    78.8481  78.8481  79.2440  79.2440  79.4052  79.4052  79.7726  79.7726
    80.3603  80.3603  80.3795  80.3795  80.5286  80.5286  81.4126  81.4126
    81.4227  81.4227  81.7970  81.7970  81.9379  81.9379  82.0502  82.0502
    82.2287  82.2287  82.9210  82.9210  82.9693  82.9693  84.3100  84.3100
    84.9567  84.9567  85.9154  85.9154  87.0354  87.0354  87.0877  87.0877
    87.1838  87.1838  87.5101  87.5101  88.5090  88.5090  88.5942  88.5942
    89.0381  89.0381  90.4723  90.4723  92.5035  92.5035  92.5255  92.5255
    92.5902  92.5902  92.7455  92.7455  92.9147  92.9147  95.2843  95.2843
    96.0418  96.0418  96.4656  96.4656  96.5403  96.5403  97.1988  97.1988
    97.2521  97.2521  98.3884  98.3884  98.4868  98.4868  99.7271  99.7271
    99.7650  99.7650  99.9745  99.9745 100.1640 100.1640 100.2075 100.2075
   100.3521 100.3521 100.8493 100.8493 101.1028 101.1028 101.3252 101.3252
   101.3953 101.3953 101.4017 101.4017 101.8497 101.8497 102.0663 102.0663
   102.9806 102.9806 103.0889 103.0889 103.3290 103.3290 103.8845 103.8845
   104.3061 104.3061 104.3175 104.3175 105.0551 105.0551 105.8469 105.8469
   105.8542 105.8542 106.1601 106.1601 107.1621 107.1621 107.3156 107.3156
   107.4990 107.4990 108.6820 108.6820 108.7348 108.7348 108.7431 108.7431
   108.8404 108.8404 109.5085 109.5085 109.5421 109.5421 109.5539 109.5539
   109.7039 109.7039 110.6205 110.6205 110.6554 110.6554 110.7446 110.7446
   111.0702 111.0702 111.1368 111.1368 111.2021 111.2021 113.6283 113.6283
   114.1529 114.1529 114.1756 114.1756 114.3576 114.3576 114.6893 114.6893
   115.0274 115.0274 115.2955 115.2955 115.3818 115.3818 115.6291 115.6291
   116.1975 116.1975 116.9059 116.9059 117.0325 117.0325 117.9731 117.9731
   118.2140 118.2140 118.5119 118.5119 119.1573 119.1573 120.9100 120.9100
   121.5683 121.5683 121.6829 121.6829 122.4015 122.4015 122.5935 122.5935
   122.7581 122.7581 123.4116 123.4116 123.7691 123.7691 123.7984 123.7984
   123.9140 123.9140 124.2257 124.2257 124.3657 124.3657 124.3842 124.3842
   124.5505 124.5505 124.8959 124.8959 125.5019 125.5019 125.5874 125.5874
   125.7862 125.7862 126.0673 126.0673 126.1398 126.1398 126.3336 126.3336
   126.5163 126.5163 126.5247 126.5247 127.7820 127.7820 128.1854 128.1854
   129.0995 129.0995 129.9579 129.9579 130.3470 130.3470 131.6276 131.6276
   131.8134 131.8134 133.6435 133.6435 135.7819 135.7819 137.1745 137.1745
   137.7904 137.7904 137.9372 137.9372 138.1799 138.1799 138.3601 138.3601
   138.3622 138.3622 138.9914 138.9914 139.5205 139.5205 139.5278 139.5278
   139.8547 139.8547 140.0224 140.0224 140.0366 140.0366 140.9445 140.9445
   141.2302 141.2302 141.7710 141.7710

     Writing all to output data dir ./outdir/PbSe.save/
 
     init_run     :      0.18s CPU      0.19s WALL (       1 calls)
     electrons    :   2030.98s CPU   2088.32s WALL (       1 calls)

     Called by init_run:
     wfcinit      :      0.00s CPU      0.00s WALL (       1 calls)
     potinit      :      0.01s CPU      0.01s WALL (       1 calls)
     hinit0       :      0.11s CPU      0.12s WALL (       1 calls)

     Called by electrons:
     c_bands      :   2030.96s CPU   2088.31s WALL (       1 calls)
     v_of_rho     :      0.01s CPU      0.01s WALL (       1 calls)

     Called by c_bands:
     init_us_2    :      0.03s CPU      0.04s WALL (      61 calls)
     init_us_2:cp :      0.03s CPU      0.04s WALL (      61 calls)
     cegterg      :   1980.79s CPU   2035.03s WALL (     125 calls)

     Called by *egterg:
     cdiaghg      :    989.03s CPU   1015.14s WALL (    1666 calls)
     h_psi        :    367.27s CPU    394.69s WALL (    1791 calls)
     g_psi        :      5.40s CPU      5.40s WALL (    1605 calls)

     Called by h_psi:
     h_psi:calbec :     11.88s CPU     12.21s WALL (    1791 calls)
     vloc_psi     :    331.85s CPU    357.59s WALL (    1791 calls)
     add_vuspsi   :     14.28s CPU     14.32s WALL (    1791 calls)

     General routines
     calbec       :     11.87s CPU     12.20s WALL (    1791 calls)
     fft          :      0.09s CPU      0.10s WALL (      14 calls)
     fftw         :    298.83s CPU    322.13s WALL ( 1740036 calls)
     davcio       :      0.08s CPU      1.30s WALL (     122 calls)
 
     Parallel routines
 
     PWSCF        :  33m53.88s CPU  34m57.11s WALL

 
   This run was terminated on:  16:29:43  13Dec2022            

=------------------------------------------------------------------------------=
   JOB DONE.
=------------------------------------------------------------------------------=
