
     Program PWSCF v.7.1 starts on 13Dec2022 at 15:42:23 
        Git branch: all_p_qe-7.1
        Last git commit: 64b50ae7008d8f92f2d90b8cd0971bd852daf481
        Last git commit date: Tue Sep 27 11:29:25 2022 -0300
        Last git commit subject: fix: write p instead of |p|^2

     This program is part of the open-source Quantum ESPRESSO suite
     for quantum simulation of materials; please cite
         "P. Giannozzi et al., J. Phys.:Condens. Matter 21 395502 (2009);
         "P. Giannozzi et al., J. Phys.:Condens. Matter 29 465901 (2017);
         "P. Giannozzi et al., J. Chem. Phys. 152 154105 (2020);
          URL http://www.quantum-espresso.org", 
     in publications or presentations arising from this work. More details at
     http://www.quantum-espresso.org/quote

     Parallel version (MPI), running on     6 processors

     MPI processes distributed on     1 nodes
     19447 MiB available memory on the printing compute node when the environment starts
 
     Reading input from scf.in

     Current dimensions of program PWSCF are:
     Max number of different atomic species (ntypx) = 10
     Max number of k-points (npk) =  40000
     Max angular momentum in pseudopotentials (lmaxx) =  4
 
     R & G space division:  proc/nbgrp/npool/nimage =       6
     Subspace diagonalization in iterative solution of the eigenvalue problem:
     one sub-group per band group will be used
     custom distributed-memory algorithm (size of sub-group:  2*  2 procs)

 
     Parallelization info
     --------------------
     sticks:   dense  smooth     PW     G-vecs:    dense   smooth      PW
     Min         324     324     93                 9499     9499    1434
     Max         325     325     94                 9504     9504    1436
     Sum        1945    1945    559                57001    57001    8609
 
     Using Slab Decomposition
 


     bravais-lattice index     =            2
     lattice parameter (alat)  =      11.9052  a.u.
     unit-cell volume          =     421.8435 (a.u.)^3
     number of atoms/cell      =            2
     number of atomic types    =            2
     number of electrons       =        30.00
     number of Kohn-Sham states=          500
     kinetic-energy cutoff     =     100.0000  Ry
     charge density cutoff     =     400.0000  Ry
     scf convergence threshold =      1.0E-08
     mixing beta               =       0.7000
     number of iterations used =            8  plain     mixing
     Exchange-correlation= PBE
                           (   1   4   3   4   0   0   0)
     Non magnetic calculation with spin-orbit


     celldm(1)=  11.905212  celldm(2)=   0.000000  celldm(3)=   0.000000
     celldm(4)=   0.000000  celldm(5)=   0.000000  celldm(6)=   0.000000

     crystal axes: (cart. coord. in units of alat)
               a(1) = (  -0.500000   0.000000   0.500000 )  
               a(2) = (   0.000000   0.500000   0.500000 )  
               a(3) = (  -0.500000   0.500000   0.000000 )  

     reciprocal axes: (cart. coord. in units 2 pi/alat)
               b(1) = ( -1.000000 -1.000000  1.000000 )  
               b(2) = (  1.000000  1.000000  1.000000 )  
               b(3) = ( -1.000000  1.000000 -1.000000 )  


     PseudoPot. # 1 for Pb read from file:
     ../../pseudos/ONCVPSP/abinit/Pb_ONCV_PBE_fr.upf
     MD5 check sum: 97b24c55cb49957ab93c51523e258a5e
     Pseudo is Norm-conserving + core correction, Zval = 14.0
     Generated using ONCVPSP code by D. R. Hamann
     Using radial grid of 1782 points, 10 beta functions with: 
                l(1) =   0
                l(2) =   0
                l(3) =   1
                l(4) =   1
                l(5) =   1
                l(6) =   1
                l(7) =   2
                l(8) =   2
                l(9) =   2
               l(10) =   2

     PseudoPot. # 2 for Se read from file:
     ../../pseudos/ONCVPSP/abinit/Se_ONCV_PBE_fr.upf
     MD5 check sum: 19a0efce42a680f7a7be0bdd339d90c8
     Pseudo is Norm-conserving + core correction, Zval = 16.0
     Generated using ONCVPSP code by D. R. Hamann
     Using radial grid of 1214 points, 10 beta functions with: 
                l(1) =   0
                l(2) =   0
                l(3) =   1
                l(4) =   1
                l(5) =   1
                l(6) =   1
                l(7) =   2
                l(8) =   2
                l(9) =   2
               l(10) =   2

     atomic species   valence    mass     pseudopotential
        Pb            14.00   207.20000     Pb( 1.00)
        Se            16.00    78.97100     Se( 1.00)

     48 Sym. Ops., with inversion, found



   Cartesian axes

     site n.     atom                  positions (alat units)
         1           Pb  tau(   1) = (   0.0000000   0.0000000   0.0000000  )
         2           Se  tau(   2) = (  -0.5000000   0.5000000   0.5000000  )

     number of k points=    20
                       cart. coord. in units 2pi/alat
        k(    1) = (   0.0000000   0.0000000   0.0000000), wk =   0.0029155
        k(    2) = (  -0.1428571   0.1428571  -0.1428571), wk =   0.0233236
        k(    3) = (  -0.2857143   0.2857143  -0.2857143), wk =   0.0233236
        k(    4) = (  -0.4285714   0.4285714  -0.4285714), wk =   0.0233236
        k(    5) = (   0.0000000   0.2857143   0.0000000), wk =   0.0174927
        k(    6) = (  -0.1428571   0.4285714  -0.1428571), wk =   0.0699708
        k(    7) = (  -0.2857143   0.5714286  -0.2857143), wk =   0.0699708
        k(    8) = (   0.5714286  -0.2857143   0.5714286), wk =   0.0699708
        k(    9) = (   0.4285714  -0.1428571   0.4285714), wk =   0.0699708
        k(   10) = (   0.2857143  -0.0000000   0.2857143), wk =   0.0349854
        k(   11) = (   0.0000000   0.5714286   0.0000000), wk =   0.0174927
        k(   12) = (  -0.1428571   0.7142857  -0.1428571), wk =   0.0699708
        k(   13) = (   0.7142857  -0.1428571   0.7142857), wk =   0.0699708
        k(   14) = (   0.5714286   0.0000000   0.5714286), wk =   0.0349854
        k(   15) = (   0.0000000   0.8571429   0.0000000), wk =   0.0174927
        k(   16) = (   0.8571429  -0.0000000   0.8571429), wk =   0.0349854
        k(   17) = (  -0.2857143   0.5714286   0.0000000), wk =   0.0699708
        k(   18) = (   0.5714286  -0.2857143   0.8571429), wk =   0.1399417
        k(   19) = (   0.7142857  -0.1428571   1.0000000), wk =   0.0699708
        k(   20) = (   0.5714286   0.0000000   0.8571429), wk =   0.0699708

     Dense  grid:    57001 G-vectors     FFT dimensions: (  54,  54,  54)

     Estimated max dynamical RAM per process >     492.67 MB

     Estimated total dynamical RAM >       2.89 GB

     Initial potential from superposition of free atoms

     starting charge      29.9974, renormalised to      30.0000
     Starting wfcs are   36 randomized atomic wfcs +  464 random wfcs

     total cpu time spent up to now is       17.6 secs

     per-process dynamical memory:   485.0 Mb

     Self-consistent Calculation

     iteration #  1     ecut=   100.00 Ry     beta= 0.70
     Davidson diagonalization with overlap
     ethr =  1.00E-02,  avg # of iterations =  7.0

     Threshold (ethr) on eigenvalues was too large:
     Diagonalizing with lowered threshold

     Davidson diagonalization with overlap
     ethr =  2.70E-04,  avg # of iterations =  1.1

     total cpu time spent up to now is      306.5 secs

     total energy              =    -382.93865310 Ry
     estimated scf accuracy    <       0.08089616 Ry

     iteration #  2     ecut=   100.00 Ry     beta= 0.70
     Davidson diagonalization with overlap
     ethr =  2.70E-04,  avg # of iterations =  2.1

     total cpu time spent up to now is      381.5 secs

     total energy              =    -382.95505543 Ry
     estimated scf accuracy    <       0.07529717 Ry

     iteration #  3     ecut=   100.00 Ry     beta= 0.70
     Davidson diagonalization with overlap
     ethr =  2.51E-04,  avg # of iterations =  1.0

     total cpu time spent up to now is      446.7 secs

     total energy              =    -382.97208820 Ry
     estimated scf accuracy    <       0.00077248 Ry

     iteration #  4     ecut=   100.00 Ry     beta= 0.70
     Davidson diagonalization with overlap
     c_bands:  1 eigenvalues not converged
     ethr =  2.57E-06,  avg # of iterations =  7.2

     total cpu time spent up to now is      538.6 secs

     total energy              =    -382.97221942 Ry
     estimated scf accuracy    <       0.00001411 Ry

     iteration #  5     ecut=   100.00 Ry     beta= 0.70
     Davidson diagonalization with overlap
     ethr =  4.70E-08,  avg # of iterations =  1.9

     total cpu time spent up to now is      608.5 secs

     total energy              =    -382.97222240 Ry
     estimated scf accuracy    <       0.00000021 Ry

     iteration #  6     ecut=   100.00 Ry     beta= 0.70
     Davidson diagonalization with overlap
     ethr =  7.11E-10,  avg # of iterations =  1.1

     total cpu time spent up to now is      673.8 secs

     total energy              =    -382.97222245 Ry
     estimated scf accuracy    <       0.00000001 Ry

     iteration #  7     ecut=   100.00 Ry     beta= 0.70
     Davidson diagonalization with overlap
     ethr =  4.62E-11,  avg # of iterations =  1.0

     total cpu time spent up to now is      739.1 secs

     End of self-consistent calculation

          k = 0.0000 0.0000 0.0000 (  7119 PWs)   bands (ev):

   -39.4672 -39.4672 -39.4672 -39.4672 -38.5733 -38.5733 -38.5733 -38.5733
   -38.5727 -38.5727  -9.9589  -9.9589  -9.9589  -9.9589  -7.3913  -7.3913
    -7.3869  -7.3869  -7.3869  -7.3869  -4.8467  -4.8467   1.7349   1.7349
     6.0966   6.0966   6.7432   6.7432   6.7432   6.7432  11.0180  11.0180
    13.3048  13.3048  13.3048  13.3048  14.7841  14.7841  14.7841  14.7841
    14.9065  14.9065  16.0637  16.0637  16.6302  16.6302  17.1086  17.1086
    17.1086  17.1086  27.3507  27.3507  27.8209  27.8209  27.8209  27.8209
    29.6648  29.6648  29.6648  29.6648  29.6648  29.6648  30.0785  30.0785
    30.0785  30.0785  30.2668  30.2668  31.5215  31.5215  31.5215  31.5215
    33.8947  33.8947  35.8933  35.8933  37.2726  37.2726  37.2726  37.2726
    39.5860  39.5860  39.5860  39.5860  39.6885  39.6885  39.8095  39.8095
    39.8321  39.8321  39.8321  39.8321  39.8321  39.8321  41.1881  41.1881
    41.1881  41.1881  41.6959  41.6959  41.6959  41.6959  41.8120  41.8120
    42.4357  42.4357  42.4357  42.4357  42.4357  42.4357  43.4741  43.4741
    45.6933  45.6933  45.6933  45.6933  45.7008  45.7008  46.0039  46.0039
    46.4031  46.4031  46.4031  46.4031  46.5261  46.5261  46.5261  46.5261
    46.6849  46.6849  48.2313  48.2313  48.2313  48.2313  48.5579  48.5579
    51.0188  51.0188  56.2648  56.2648  57.1689  57.1689  57.1689  57.1689
    60.3405  60.3405  60.3405  60.3405  63.1732  63.1732  63.1732  63.1732
    63.1732  63.1732  63.3081  63.3081  66.6670  66.6670  67.8266  67.8266
    67.8266  67.8266  67.8266  67.8266  68.2728  68.2728  68.2728  68.2728
    68.3581  68.3581  69.2293  69.2293  69.2293  69.2293  69.3377  69.3377
    70.0489  70.0489  70.0489  70.0489  71.4526  71.4526  71.4526  71.4526
    71.4618  71.4618  71.4771  71.4771  71.5403  71.5403  71.5403  71.5403
    72.5218  72.5218  72.5218  72.5218  72.5218  72.5218  73.5937  73.5937
    73.6341  73.6341  73.6341  73.6341  74.8990  74.8990  74.8990  74.8990
    74.9602  74.9602  74.9602  74.9602  74.9602  74.9602  74.9795  74.9795
    74.9795  74.9795  76.7102  76.7102  76.7102  76.7102  76.7102  76.7102
    77.3727  77.3727  77.5982  77.5982  77.5982  77.5982  77.7461  77.7461
    78.7166  78.7166  79.5916  79.5916  79.5916  79.5916  79.8570  79.8570
    80.2809  80.2809  80.5138  80.5138  80.5138  80.5138  85.0811  85.0811
    86.1045  86.1045  87.2904  87.2904  87.4503  87.4503  87.4503  87.4503
    88.9586  88.9586  88.9586  88.9586  89.0487  89.0487  89.9656  89.9656
    89.9656  89.9656  90.4838  90.4838  90.4838  90.4838  90.4838  90.4838
    90.5661  90.5661  90.5661  90.5661  90.5661  90.5661  90.9779  90.9779
    91.2439  91.2439  91.2439  91.2439  91.8594  91.8594  91.8594  91.8594
    93.1155  93.1155  93.1155  93.1155  93.3133  93.3133  94.8195  94.8195
    96.1130  96.1130  96.1130  96.1130  96.7492  96.7492  96.8597  96.8597
    97.9699  97.9699  97.9699  97.9699  97.9699  97.9699  98.7228  98.7228
    98.7228  98.7228  98.7228  98.7228 100.6274 100.6274 100.6274 100.6274
   100.6299 100.6299 101.1312 101.1312 101.1582 101.1582 101.1582 101.1582
   104.0969 104.0969 104.0969 104.0969 105.2205 105.2205 105.8882 105.8882
   105.8882 105.8882 105.9300 105.9300 105.9300 105.9300 106.0736 106.0736
   106.0738 106.0738 106.0738 106.0738 106.1110 106.1110 106.1132 106.1132
   106.2489 106.2489 107.5981 107.5981 107.5981 107.5981 112.7670 112.7670
   112.7670 112.7670 112.7670 112.7670 115.8057 115.8057 116.8768 116.8768
   116.8768 116.8768 117.8783 117.8783 117.8783 117.8783 118.9032 118.9032
   118.9032 118.9032 118.9032 118.9032 119.1897 119.1897 120.6010 120.6010
   120.6010 120.6010 120.6875 120.6875 121.9912 121.9912 121.9912 121.9912
   123.7090 123.7090 124.5124 124.5124 124.5124 124.5124 124.5875 124.5875
   124.8241 124.8241 124.8511 124.8511 124.8511 124.8511 125.9918 125.9918
   125.9918 125.9918 125.9918 125.9918 126.2189 126.2189 126.7931 126.7931
   126.7931 126.7931 126.8390 126.8390 126.8612 126.8612 126.8612 126.8612
   127.9842 127.9842 128.4896 128.4896 128.4896 128.4896 128.4896 128.4896
   129.0445 129.0445 129.0445 129.0445 129.8406 129.8406 129.8796 129.8796
   131.3019 131.3019 131.3019 131.3019 131.4967 131.4967 131.8590 131.8590
   131.8590 131.8590 131.8767 131.8767 131.8767 131.8767 131.8796 131.8796
   133.1968 133.1968 133.1968 133.1968 133.1968 133.1968 134.5922 134.5922
   134.5923 134.5923 134.5990 134.5990 134.7878 134.7878 135.0348 135.0348
   135.0348 135.0348 135.1895 135.1895 135.1895 135.1895 135.2682 135.2682
   135.2682 135.2682 135.2682 135.2682 135.4009 135.4009 135.4533 135.4533
   135.4533 135.4533 135.4533 135.4533 135.4868 135.4868 135.4868 135.4868
   135.4868 135.4871 135.6380 135.6380

          k =-0.1429 0.1429-0.1429 (  7156 PWs)   bands (ev):

   -39.4672 -39.4672 -39.4672 -39.4672 -38.5733 -38.5733 -38.5733 -38.5733
   -38.5727 -38.5727  -9.9591  -9.9591  -9.9574  -9.9574  -7.3907  -7.3907
    -7.3877  -7.3877  -7.3849  -7.3849  -4.7202  -4.7202   1.3653   1.3653
     6.2205   6.2205   6.7779   6.7779   6.9270   6.9270  10.4125  10.4125
    12.1168  12.1168  12.4993  12.4993  14.6237  14.6237  15.2077  15.2077
    15.2643  15.2643  17.3274  17.3274  17.9973  17.9973  18.2446  18.2446
    18.2535  18.2535  25.4764  25.4764  26.0527  26.0527  26.1292  26.1292
    28.5806  28.5806  28.7282  28.7282  29.8742  29.8742  30.6556  30.6556
    30.7335  30.7335  31.0779  31.0779  33.6672  33.6672  33.8546  33.8546
    34.4491  34.4491  34.8978  34.8978  35.3673  35.3673  36.6382  36.6382
    37.8885  37.8885  37.9677  37.9677  38.1480  38.1480  38.4346  38.4346
    38.7766  38.7766  38.7801  38.7801  38.8455  38.8455  40.8183  40.8183
    41.0349  41.0349  41.3468  41.3468  43.1175  43.1175  43.4793  43.4793
    43.4824  43.4824  43.5798  43.5798  44.0290  44.0290  44.5351  44.5351
    44.6169  44.6169  44.6596  44.6596  44.7510  44.7510  46.0541  46.0541
    46.0614  46.0614  47.9675  47.9675  48.4791  48.4791  49.2617  49.2617
    49.3105  49.3105  50.0775  50.0775  50.0791  50.0791  50.3261  50.3261
    53.6175  53.6175  54.9454  54.9454  55.4358  55.4358  56.1398  56.1398
    60.2433  60.2433  60.3274  60.3274  62.8874  62.8874  62.9719  62.9719
    62.9725  62.9725  63.1506  63.1506  64.1483  64.1483  64.2221  64.2221
    64.9340  64.9340  65.5423  65.5423  66.5285  66.5285  66.9466  66.9466
    66.9531  66.9531  67.6168  67.6168  67.6827  67.6827  68.7422  68.7422
    68.8868  68.8868  69.8150  69.8150  70.1593  70.1593  70.1789  70.1789
    71.1355  71.1355  71.1423  71.1423  72.4888  72.4888  72.5431  72.5431
    73.2176  73.2176  73.3805  73.3805  73.4422  73.4422  73.9070  73.9070
    74.0838  74.0838  74.1037  74.1037  74.4897  74.4897  74.5644  74.5644
    74.9964  74.9964  75.0145  75.0145  75.1399  75.1399  75.7047  75.7047
    76.4767  76.4767  76.6933  76.6933  77.6435  77.6435  78.5381  78.5381
    78.5614  78.5614  78.7792  78.7792  79.7015  79.7015  80.9539  80.9539
    80.9583  80.9583  81.2318  81.2318  81.2505  81.2505  82.2554  82.2554
    82.3326  82.3326  82.4024  82.4024  82.8951  82.8951  83.0525  83.0525
    83.6344  83.6344  85.3213  85.3213  85.6889  85.6889  86.4932  86.4932
    86.5332  86.5332  86.5611  86.5611  87.2540  87.2540  87.2826  87.2826
    87.6171  87.6171  89.2088  89.2088  89.4679  89.4679  89.9442  89.9442
    90.2225  90.2225  90.7069  90.7069  90.7308  90.7308  92.4124  92.4124
    92.7481  92.7481  92.9336  92.9336  93.3102  93.3102  93.4217  93.4217
    93.5300  93.5300  93.5421  93.5421  95.0207  95.0207  95.5773  95.5773
    95.6223  95.6223  95.7836  95.7836  96.1959  96.1959  96.2059  96.2059
    97.4900  97.4900  97.8640  97.8640  98.7543  98.7543  99.1501  99.1501
    99.4353  99.4353  99.5505  99.5505 100.6186 100.6186 100.8722 100.8722
   101.1804 101.1804 101.2159 101.2159 101.4394 101.4394 102.2048 102.2048
   103.7659 103.7659 103.7773 103.7773 103.8246 103.8246 104.8846 104.8846
   104.9991 104.9991 106.0126 106.0126 106.0895 106.0895 106.1635 106.1635
   107.9426 107.9426 108.3075 108.3075 108.4503 108.4503 110.5690 110.5690
   110.8062 110.8062 110.8181 110.8181 111.8720 111.8720 111.8724 111.8724
   112.4400 112.4400 112.9020 112.9020 113.0086 113.0086 115.5986 115.5986
   115.6504 115.6504 116.5406 116.5406 116.5859 116.5859 116.9683 116.9683
   117.7438 117.7438 117.7674 117.7674 118.0344 118.0344 118.1392 118.1392
   119.2847 119.2847 119.9517 119.9517 120.8893 120.8893 121.1612 121.1612
   121.5866 121.5866 121.9919 121.9919 122.3331 122.3331 122.5232 122.5232
   122.5384 122.5384 123.9653 123.9653 124.0422 124.0422 124.1616 124.1616
   124.6586 124.6586 124.7331 124.7331 125.4064 125.4064 125.4121 125.4121
   125.8480 125.8480 126.2337 126.2337 126.3513 126.3513 126.6865 126.6865
   126.7439 126.7439 126.9330 126.9330 127.9157 127.9157 128.2983 128.2983
   128.4402 128.4402 128.7322 128.7322 128.8336 128.8336 129.1536 129.1536
   129.1544 129.1544 129.4397 129.4397 129.4517 129.4517 130.9401 130.9401
   131.0819 131.0819 131.1206 131.1206 131.2744 131.2744 131.5753 131.5753
   131.5938 131.5938 132.4819 132.4819 132.6335 132.6335 132.6338 132.6338
   133.4625 133.4625 133.4879 133.4879 133.5512 133.5512 133.6207 133.6207
   134.4268 134.4268 134.7018 134.7018 134.7795 134.7795 135.2211 135.2211
   135.6704 135.6704 135.9984 135.9984 136.0126 136.0126 136.5273 136.5273
   136.5682 136.5682 136.6828 136.6828 136.8500 136.8500 136.8819 136.8819
   137.2990 137.2991 137.9002 137.9012

          k =-0.2857 0.2857-0.2857 (  7144 PWs)   bands (ev):

   -39.4672 -39.4672 -39.4672 -39.4672 -38.5733 -38.5733 -38.5733 -38.5733
   -38.5726 -38.5726  -9.9598  -9.9598  -9.9541  -9.9541  -7.3974  -7.3974
    -7.3814  -7.3814  -7.3801  -7.3801  -4.3929  -4.3929   0.5754   0.5754
     6.4689   6.4689   6.8784   6.8784   7.3516   7.3516   9.3085   9.3085
    10.6776  10.6776  11.3323  11.3323  14.9686  14.9686  16.2857  16.2857
    16.2909  16.2909  19.1663  19.1663  20.2366  20.2366  20.5417  20.5417
    21.0790  21.0790  23.1729  23.1729  23.2265  23.2265  23.3007  23.3007
    28.6073  28.6073  28.8058  28.8058  30.4800  30.4800  30.6642  30.6642
    30.8149  30.8149  31.3308  31.3308  31.5071  31.5071  32.0318  32.0318
    32.2816  32.2816  34.7968  34.7968  35.6781  35.6781  35.6828  35.6828
    36.0172  36.0172  36.3196  36.3196  36.4077  36.4077  36.6270  36.6270
    39.0845  39.0845  39.1158  39.1158  39.3936  39.3936  40.7810  40.7810
    41.2693  41.2693  41.2866  41.2866  42.0471  42.0471  42.9877  42.9877
    43.0050  43.0050  45.0890  45.0890  45.5988  45.5988  45.9299  45.9299
    47.1260  47.1260  47.3315  47.3315  47.9244  47.9244  48.0213  48.0213
    48.4059  48.4059  49.1059  49.1059  50.4799  50.4799  50.5713  50.5713
    51.4689  51.4689  53.4598  53.4598  53.9293  53.9293  54.0443  54.0443
    54.9410  54.9410  54.9611  54.9611  55.0129  55.0129  56.5674  56.5674
    56.7038  56.7038  57.6171  57.6171  59.9768  59.9768  60.0257  60.0257
    60.0278  60.0278  61.0847  61.0847  61.5313  61.5313  61.5515  61.5515
    61.7352  61.7352  63.2714  63.2714  63.3431  63.3431  64.7128  64.7128
    66.1157  66.1157  66.2379  66.2379  67.1198  67.1198  68.0321  68.0321
    68.7441  68.7441  68.7992  68.7992  68.9447  68.9447  69.5848  69.5848
    69.6776  69.6776  69.8370  69.8370  71.2748  71.2748  71.5141  71.5141
    71.6846  71.6846  73.9539  73.9539  74.2799  74.2799  74.7142  74.7142
    74.7521  74.7521  75.1064  75.1064  75.1198  75.1198  75.4914  75.4914
    75.5378  75.5378  75.5455  75.5455  76.1295  76.1295  76.3425  76.3425
    77.7690  77.7690  77.9940  77.9940  78.0052  78.0052  78.7328  78.7328
    78.7781  78.7781  79.2966  79.2966  81.3542  81.3542  81.5089  81.5089
    81.5385  81.5385  83.0603  83.0603  83.0859  83.0859  83.1217  83.1217
    83.7305  83.7305  84.7556  84.7556  84.8874  84.8874  84.9127  84.9127
    85.5234  85.5234  85.9288  85.9288  86.2988  86.2988  86.3270  86.3270
    87.0809  87.0809  87.2977  87.2977  87.8666  87.8666  87.9836  87.9836
    88.7292  88.7292  88.8175  88.8175  88.8208  88.8208  89.2370  89.2370
    89.5110  89.5110  89.7172  89.7172  89.7202  89.7202  90.2810  90.2810
    91.1494  91.1494  92.2647  92.2647  92.3731  92.3731  92.6513  92.6513
    92.7201  92.7201  94.2696  94.2696  95.4061  95.4061  95.7137  95.7137
    95.7714  95.7714  95.9301  95.9301  96.3925  96.3925  97.2053  97.2053
    97.4394  97.4394  97.4439  97.4439  98.9540  98.9540 100.0326 100.0326
   100.1169 100.1169 100.3728 100.3728 100.4582 100.4582 100.4998 100.4998
   101.6897 101.6897 103.2384 103.2384 103.2557 103.2557 104.5574 104.5574
   105.8355 105.8355 106.0018 106.0018 106.0912 106.0912 107.2479 107.2479
   107.3598 107.3598 108.6919 108.6919 108.7547 108.7547 108.9763 108.9763
   109.3338 109.3338 110.1880 110.1880 110.2130 110.2130 110.4248 110.4248
   110.4852 110.4852 111.1831 111.1831 111.1877 111.1877 111.5752 111.5752
   111.6696 111.6696 112.3697 112.3697 113.4051 113.4051 113.4094 113.4094
   113.4861 113.4861 114.8744 114.8744 114.8915 114.8915 114.9946 114.9946
   115.7169 115.7169 116.6432 116.6432 116.6615 116.6615 116.8537 116.8537
   117.2616 117.2616 118.0646 118.0646 118.1679 118.1679 118.6292 118.6292
   118.6393 118.6393 118.7504 118.7504 118.8346 118.8346 119.6218 119.6218
   119.6649 119.6649 120.3695 120.3695 120.5534 120.5534 120.8470 120.8470
   121.3612 121.3612 121.3688 121.3688 121.6407 121.6407 123.1914 123.1914
   124.3784 124.3784 124.7956 124.7956 125.7151 125.7151 125.8075 125.8075
   126.3251 126.3251 126.8810 126.8810 127.7387 127.7387 127.9896 127.9896
   128.7823 128.7823 128.8613 128.8613 129.1369 129.1369 129.2943 129.2943
   129.3647 129.3647 129.4912 129.4912 129.6728 129.6728 129.7177 129.7177
   130.3970 130.3970 130.4566 130.4566 130.5421 130.5421 130.6769 130.6769
   131.5191 131.5191 131.5424 131.5424 132.0579 132.0579 132.0966 132.0966
   132.2952 132.2952 132.8622 132.8622 132.8941 132.8941 133.3194 133.3194
   133.3980 133.3980 133.6229 133.6229 133.9119 133.9119 134.7583 134.7583
   135.6284 135.6284 136.2128 136.2128 136.8509 136.8509 137.1114 137.1114
   137.4455 137.4455 138.2344 138.2344 138.3935 138.3935 138.4311 138.4311
   138.7927 138.7927 139.0170 139.0198

          k =-0.4286 0.4286-0.4286 (  7129 PWs)   bands (ev):

   -39.4672 -39.4672 -39.4672 -39.4672 -38.5733 -38.5733 -38.5733 -38.5733
   -38.5726 -38.5726  -9.9603  -9.9603  -9.9515  -9.9515  -7.4030  -7.4030
    -7.3763  -7.3763  -7.3761  -7.3761  -4.0648  -4.0648  -0.0695  -0.0695
     6.7228   6.7228   6.9897   6.9897   7.8192   7.8192   8.4001   8.4001
     9.7922   9.7922  10.6059  10.6059  16.1284  16.1284  17.7633  17.7633
    17.8855  17.8855  18.6452  18.6452  20.3750  20.3750  20.3863  20.3863
    22.9418  22.9418  23.4795  23.4795  23.7741  23.7741  25.4602  25.4602
    26.7839  26.7839  27.1312  27.1312  27.4350  27.4350  30.6072  30.6072
    31.1278  31.1278  31.1980  31.1980  31.3096  31.3096  31.4342  31.4342
    31.5115  31.5115  31.5436  31.5436  33.4790  33.4790  33.9771  33.9771
    34.1213  34.1213  35.8875  35.8875  36.1144  36.1144  36.6731  36.6731
    38.7363  38.7363  40.8866  40.8866  40.9042  40.9042  41.6873  41.6873
    41.7567  41.7567  41.8319  41.8319  43.2509  43.2509  43.2641  43.2641
    45.0838  45.0838  46.3927  46.3927  46.6730  46.6730  46.8988  46.8988
    48.7065  48.7065  48.9792  48.9792  49.0405  49.0405  49.8310  49.8310
    50.1794  50.1794  51.7773  51.7773  51.8142  51.8142  52.0084  52.0084
    52.5145  52.5145  52.7060  52.7060  52.7393  52.7393  54.4437  54.4437
    54.7869  54.7869  55.0264  55.0264  55.4147  55.4147  56.7162  56.7162
    56.7573  56.7573  56.9396  56.9396  57.3555  57.3555  57.4594  57.4594
    58.9363  58.9363  60.0849  60.0849  60.1473  60.1473  60.7344  60.7344
    61.1966  61.1966  61.2447  61.2447  61.8884  61.8884  64.4555  64.4555
    64.8711  64.8711  66.3190  66.3190  66.3816  66.3816  67.6715  67.6715
    67.7244  67.7244  67.9068  67.9068  68.2032  68.2032  68.8263  68.8263
    68.8350  68.8350  69.4786  69.4786  69.6218  69.6218  69.6855  69.6855
    71.0406  71.0406  71.3014  71.3014  71.3073  71.3073  73.7828  73.7828
    74.1453  74.1453  74.4347  74.4347  76.3717  76.3717  77.0328  77.0328
    77.1304  77.1304  77.4529  77.4529  77.5254  77.5254  77.8342  77.8342
    78.4522  78.4522  79.2701  79.2701  79.3006  79.3006  79.9624  79.9624
    79.9806  79.9806  80.1143  80.1143  80.1412  80.1412  80.9256  80.9256
    81.7497  81.7497  82.1002  82.1002  82.4548  82.4548  82.4923  82.4923
    82.9970  82.9970  83.2726  83.2726  83.4738  83.4738  84.6324  84.6324
    85.0028  85.0028  85.5714  85.5714  86.9660  86.9660  87.0023  87.0023
    87.6459  87.6459  87.8537  87.8537  88.3332  88.3332  88.9818  88.9818
    89.1347  89.1347  90.2125  90.2125  90.2608  90.2608  90.5021  90.5021
    91.2086  91.2086  92.4281  92.4281  93.1101  93.1101  93.1388  93.1388
    93.2096  93.2096  93.2289  93.2289  94.1381  94.1381  94.2743  94.2743
    94.3300  94.3300  94.7461  94.7461  94.8526  94.8526  94.9410  94.9410
    96.6401  96.6401  96.9580  96.9580  96.9708  96.9708  97.0139  97.0139
    97.6146  97.6146  97.6494  97.6494  98.4571  98.4571  98.6416  98.6416
    99.8751  99.8751 101.3862 101.3862 101.7582 101.7582 101.7587 101.7587
   102.6954 102.6954 103.0431 103.0431 104.1059 104.1059 104.8747 104.8747
   105.4287 105.4287 105.4439 105.4439 105.5380 105.5380 105.5390 105.5390
   105.7639 105.7639 105.7710 105.7710 106.2104 106.2104 106.2145 106.2145
   108.3359 108.3359 109.1253 109.1253 109.2502 109.2502 109.6928 109.6928
   111.1478 111.1478 111.1705 111.1705 111.1835 111.1835 111.2166 111.2166
   111.8333 111.8333 111.8380 111.8380 113.5114 113.5114 113.5522 113.5522
   113.9490 113.9490 114.0747 114.0747 115.0102 115.0102 115.0709 115.0709
   115.4790 115.4790 115.9492 115.9492 115.9680 115.9680 116.2694 116.2694
   117.3291 117.3291 117.3424 117.3424 117.6749 117.6749 118.0834 118.0834
   118.1252 118.1252 118.4836 118.4836 118.6242 118.6242 118.6616 118.6616
   120.5785 120.5785 120.6140 120.6140 120.7188 120.7188 121.5728 121.5728
   121.6754 121.6754 122.7408 122.7408 122.8992 122.8992 123.2110 123.2110
   123.4869 123.4869 123.5573 123.5573 124.3221 124.3221 124.6634 124.6634
   125.5347 125.5347 125.6971 125.6971 126.0930 126.0930 126.3164 126.3164
   126.5444 126.5444 126.8310 126.8310 126.8592 126.8592 127.4050 127.4050
   128.2894 128.2894 128.6493 128.6493 128.9888 128.9888 129.0170 129.0170
   129.0237 129.0237 129.8264 129.8264 130.3920 130.3920 130.8408 130.8408
   131.1843 131.1843 131.2021 131.2021 131.6418 131.6418 131.7610 131.7610
   131.9479 131.9479 132.2011 132.2011 132.7981 132.7981 132.8560 132.8560
   133.2650 133.2650 133.8460 133.8460 134.0808 134.0808 134.4899 134.4899
   134.9081 134.9081 134.9876 134.9876 135.5753 135.5753 135.7361 135.7361
   137.2666 137.2666 137.2946 137.2946 137.3781 137.3781 138.0183 138.0183
   138.5382 138.5384 138.8545 138.8546

          k = 0.0000 0.2857 0.0000 (  7115 PWs)   bands (ev):

   -39.4672 -39.4672 -39.4672 -39.4672 -38.5733 -38.5733 -38.5733 -38.5733
   -38.5727 -38.5727  -9.9586  -9.9586  -9.9579  -9.9579  -7.3919  -7.3919
    -7.3895  -7.3895  -7.3830  -7.3830  -4.6759  -4.6759   1.3249   1.3249
     5.9956   5.9956   6.4968   6.4968   7.3401   7.3401   9.9946   9.9946
    12.1627  12.1627  13.1008  13.1008  13.8222  13.8222  15.8021  15.8021
    16.0913  16.0913  16.6762  16.6762  17.3402  17.3402  18.2281  18.2281
    19.8213  19.8213  25.5112  25.5112  25.7660  25.7660  25.9352  25.9352
    26.9581  26.9581  29.0350  29.0350  29.1431  29.1431  30.2657  30.2657
    32.0521  32.0521  32.4039  32.4039  32.4525  32.4525  33.3523  33.3523
    34.4575  34.4575  35.7940  35.7940  36.2199  36.2199  36.2982  36.2982
    36.4416  36.4416  37.1302  37.1302  38.0883  38.0883  39.2223  39.2223
    39.3904  39.3904  39.3943  39.3943  39.6394  39.6394  40.0044  40.0044
    41.0183  41.0183  41.3157  41.3157  41.7768  41.7768  41.9917  41.9917
    42.1554  42.1554  42.8937  42.8937  44.4204  44.4204  44.5498  44.5498
    44.9110  44.9110  45.8198  45.8198  46.7494  46.7494  46.7988  46.7988
    47.5044  47.5044  47.5599  47.5599  47.6746  47.6746  49.3662  49.3662
    49.4439  49.4439  50.5908  50.5908  50.7156  50.7156  52.1680  52.1680
    52.3869  52.3869  53.9704  53.9704  57.3723  57.3723  57.9764  57.9764
    58.0160  58.0160  61.6776  61.6776  61.9857  61.9857  62.0654  62.0654
    62.4556  62.4556  62.4924  62.4924  63.7478  63.7478  63.8546  63.8546
    64.2050  64.2050  64.8310  64.8310  66.1081  66.1081  66.7453  66.7453
    66.8314  66.8314  68.3886  68.3886  68.4169  68.4169  68.5391  68.5391
    68.7061  68.7061  68.9635  68.9635  69.1137  69.1137  69.1510  69.1510
    69.3354  69.3354  71.5659  71.5659  71.8686  71.8686  72.4481  72.4481
    72.8034  72.8034  72.9419  72.9419  73.1950  73.1950  73.3264  73.3264
    74.2276  74.2276  74.2331  74.2331  75.1239  75.1239  75.5260  75.5260
    75.6694  75.6694  75.7360  75.7360  76.0897  76.0897  76.3805  76.3805
    77.5100  77.5100  77.8954  77.8954  78.1910  78.1910  78.4187  78.4187
    79.5946  79.5946  79.8706  79.8706  79.8765  79.8765  80.4891  80.4891
    80.4978  80.4978  81.3887  81.3887  81.6728  81.6728  82.0728  82.0728
    82.3926  82.3926  82.7471  82.7471  84.1049  84.1049  84.1481  84.1481
    84.2283  84.2283  84.6219  84.6219  85.2335  85.2335  85.4834  85.4834
    85.4991  85.4991  85.5777  85.5777  86.5366  86.5366  87.5505  87.5505
    87.6786  87.6786  87.8438  87.8438  88.0381  88.0381  89.1975  89.1975
    89.3953  89.3953  89.6990  89.6990  91.4300  91.4300  91.5043  91.5043
    91.6572  91.6572  92.4952  92.4952  94.3340  94.3340  94.4344  94.4344
    94.7078  94.7078  95.1360  95.1360  95.3848  95.3848  95.7678  95.7678
    96.2074  96.2074  97.5929  97.5929  97.6992  97.6992  97.8233  97.8233
    98.0460  98.0460  98.2296  98.2296  98.4194  98.4194  98.5518  98.5518
    98.8593  98.8593  98.9052  98.9052  99.5169  99.5169 100.4520 100.4520
   101.2002 101.2002 101.4436 101.4436 101.7083 101.7083 102.4216 102.4216
   102.6039 102.6039 103.0405 103.0405 103.7707 103.7707 106.8521 106.8521
   106.9246 106.9246 106.9548 106.9548 106.9918 106.9918 107.5680 107.5680
   107.6905 107.6905 108.2065 108.2065 109.2322 109.2322 109.3597 109.3597
   109.5451 109.5451 110.0867 110.0867 110.1277 110.1277 111.2779 111.2779
   112.0655 112.0655 112.1433 112.1433 114.7273 114.7273 115.5380 115.5380
   115.6066 115.6066 116.6049 116.6049 117.0866 117.0866 117.4377 117.4377
   117.7574 117.7574 118.0442 118.0442 118.0719 118.0719 119.2027 119.2027
   119.2678 119.2678 120.1759 120.1759 120.6369 120.6369 120.7038 120.7038
   121.1109 121.1109 121.2859 121.2859 121.3485 121.3485 121.4965 121.4965
   122.3491 122.3491 122.9137 122.9137 122.9617 122.9617 123.4154 123.4154
   123.4279 123.4279 123.5665 123.5665 123.9297 123.9297 125.7284 125.7284
   125.8252 125.8252 126.0182 126.0182 126.5900 126.5900 126.6596 126.6596
   127.1350 127.1350 127.2205 127.2205 127.6486 127.6486 127.8818 127.8818
   128.0010 128.0010 128.4857 128.4857 128.7163 128.7163 128.8634 128.8634
   129.0905 129.0905 129.7722 129.7722 129.8533 129.8533 129.8814 129.8814
   129.9094 129.9094 130.0418 130.0418 130.3616 130.3616 130.5155 130.5155
   130.7300 130.7300 130.7433 130.7433 131.2746 131.2746 132.0364 132.0364
   132.3158 132.3158 132.9962 132.9962 133.2904 133.2904 133.3925 133.3925
   133.8405 133.8405 133.9784 133.9784 134.5788 134.5788 134.6377 134.6377
   134.9987 134.9987 135.0271 135.0271 136.0625 136.0625 136.6898 136.6898
   136.7146 136.7146 137.2754 137.2754 138.6588 138.6588 138.7283 138.7283
   138.8515 138.8515 138.8554 138.8554

          k =-0.1429 0.4286-0.1429 (  7123 PWs)   bands (ev):

   -39.4672 -39.4672 -39.4672 -39.4672 -38.5733 -38.5733 -38.5733 -38.5733
   -38.5726 -38.5726  -9.9593  -9.9593  -9.9556  -9.9556  -7.3998  -7.3998
    -7.3876  -7.3876  -7.3774  -7.3774  -4.4105  -4.4105   0.8139   0.8139
     5.9310   5.9310   6.3879   6.3879   7.2803   7.2803   9.5735   9.5735
    11.5110  11.5110  12.3857  12.3857  13.8895  13.8895  16.5570  16.5570
    16.9996  16.9996  18.1292  18.1292  18.6876  18.6876  20.3753  20.3753
    21.6472  21.6472  23.2241  23.2241  23.3947  23.3947  25.4741  25.4741
    26.9822  26.9822  27.2916  27.2916  29.3370  29.3370  29.8193  29.8193
    31.1745  31.1745  31.7748  31.7748  32.2158  32.2158  33.4524  33.4524
    33.9775  33.9775  34.8678  34.8678  35.5034  35.5034  35.7319  35.7319
    36.0814  36.0814  37.3160  37.3160  37.4053  37.4053  37.7297  37.7297
    38.1318  38.1318  38.7845  38.7845  39.6964  39.6964  40.1500  40.1500
    40.5524  40.5524  41.1484  41.1484  42.2997  42.2997  42.6572  42.6572
    43.4357  43.4357  43.6761  43.6761  44.8526  44.8526  45.5745  45.5745
    45.6855  45.6855  46.5937  46.5937  47.0100  47.0100  48.5055  48.5055
    49.5857  49.5857  50.3465  50.3465  50.4152  50.4152  50.6548  50.6548
    51.3711  51.3711  51.6761  51.6761  52.2038  52.2038  54.0121  54.0121
    55.4516  55.4516  56.3210  56.3210  56.5624  56.5624  57.1826  57.1826
    57.5760  57.5760  58.3359  58.3359  58.9177  58.9177  60.0185  60.0185
    60.7665  60.7665  60.9732  60.9732  62.1159  62.1159  62.4391  62.4391
    63.0670  63.0670  63.3076  63.3076  63.7188  63.7188  63.9123  63.9123
    64.6925  64.6925  66.0248  66.0248  66.7611  66.7611  67.1344  67.1344
    67.5549  67.5549  68.8927  68.8927  69.0125  69.0125  69.5233  69.5233
    69.6369  69.6369  69.8208  69.8208  71.1799  71.1799  71.3370  71.3370
    72.0867  72.0867  73.4149  73.4149  73.6322  73.6322  74.2207  74.2207
    74.5897  74.5897  74.7304  74.7304  75.2124  75.2124  75.8751  75.8751
    75.9106  75.9106  76.5680  76.5680  76.6713  76.6713  77.1513  77.1513
    78.8581  78.8581  78.9784  78.9784  79.4203  79.4203  79.6398  79.6398
    80.2044  80.2044  80.6232  80.6232  80.8603  80.8603  81.0910  81.0910
    81.4591  81.4591  81.5752  81.5752  82.3089  82.3089  82.3834  82.3834
    83.1198  83.1198  83.5979  83.5979  84.1409  84.1409  84.3930  84.3930
    84.4749  84.4749  84.8613  84.8613  85.4980  85.4980  85.8459  85.8459
    86.3443  86.3443  86.8351  86.8351  87.5187  87.5187  87.8055  87.8055
    88.0961  88.0961  88.1525  88.1525  88.5747  88.5747  88.6405  88.6405
    89.7601  89.7601  90.0695  90.0695  90.6950  90.6950  91.2629  91.2629
    91.7451  91.7451  92.1911  92.1911  92.6141  92.6141  93.4414  93.4414
    93.5511  93.5511  93.9746  93.9746  94.8308  94.8308  95.2373  95.2373
    95.3749  95.3749  95.6659  95.6659  97.5255  97.5255  97.9549  97.9549
    98.1433  98.1433  98.6188  98.6188  99.2407  99.2407 100.3284 100.3284
   101.6946 101.6946 102.0493 102.0493 102.8437 102.8437 102.9045 102.9045
   103.1024 103.1024 103.2210 103.2210 103.3335 103.3335 103.5716 103.5716
   103.6138 103.6138 104.0769 104.0769 105.5423 105.5423 105.7964 105.7964
   106.2076 106.2076 106.6401 106.6401 106.9438 106.9438 107.9609 107.9609
   108.5928 108.5928 109.0992 109.0992 109.4059 109.4059 110.1155 110.1155
   110.7157 110.7157 111.4679 111.4679 112.5692 112.5692 112.8141 112.8141
   113.2203 113.2203 113.3802 113.3802 113.5053 113.5053 113.6744 113.6744
   114.0803 114.0803 114.1863 114.1863 114.8560 114.8560 115.4831 115.4831
   115.5636 115.5636 116.4015 116.4015 117.0522 117.0522 117.1634 117.1634
   117.2882 117.2882 117.7202 117.7202 118.0078 118.0078 118.5277 118.5277
   118.9370 118.9370 119.3317 119.3317 119.7663 119.7663 119.9227 119.9227
   120.8086 120.8086 120.9975 120.9975 121.0383 121.0383 121.4131 121.4131
   121.9283 121.9283 122.6205 122.6205 122.6852 122.6852 123.3486 123.3486
   123.3738 123.3738 123.7761 123.7761 124.0906 124.0906 124.6926 124.6926
   125.1687 125.1687 125.4855 125.4855 126.1669 126.1669 126.3691 126.3691
   126.7924 126.7924 127.2236 127.2236 127.8057 127.8057 127.9338 127.9338
   128.3756 128.3756 128.7985 128.7985 128.9144 128.9144 129.5355 129.5355
   129.7062 129.7062 130.2488 130.2488 130.3714 130.3714 130.8089 130.8089
   130.8598 130.8598 131.1587 131.1587 131.4947 131.4947 132.3327 132.3327
   132.5731 132.5731 133.5565 133.5565 133.9125 133.9125 134.2494 134.2494
   134.9115 134.9115 135.6131 135.6131 135.9898 135.9898 136.0112 136.0112
   136.7338 136.7338 136.9689 136.9689 137.1320 137.1320 137.2426 137.2426
   137.5516 137.5516 137.7158 137.7158 138.2868 138.2868 138.8255 138.8255
   139.1863 139.1863 139.4224 139.4224

          k =-0.2857 0.5714-0.2857 (  7136 PWs)   bands (ev):

   -39.4672 -39.4672 -39.4672 -39.4672 -38.5733 -38.5733 -38.5733 -38.5733
   -38.5726 -38.5726  -9.9601  -9.9601  -9.9531  -9.9531  -7.4063  -7.4063
    -7.3838  -7.3838  -7.3738  -7.3738  -4.0693  -4.0693   0.1934   0.1934
     6.0262   6.0262   6.3229   6.3229   6.9600   6.9600   9.5514   9.5514
    10.8127  10.8127  11.5636  11.5636  14.7825  14.7825  17.6843  17.6843
    18.3775  18.3775  18.8132  18.8132  19.9728  19.9728  21.4177  21.4177
    21.8357  21.8357  23.3397  23.3397  23.8188  23.8188  24.9428  24.9428
    26.4796  26.4796  27.7851  27.7851  27.9713  27.9713  28.8489  28.8489
    29.8260  29.8260  30.4673  30.4673  31.1406  31.1406  31.5518  31.5518
    31.9264  31.9264  32.5150  32.5150  34.4828  34.4828  35.0449  35.0449
    35.8298  35.8298  36.2906  36.2906  36.4194  36.4194  38.3369  38.3369
    38.5236  38.5236  39.5449  39.5449  39.8101  39.8101  40.1582  40.1582
    41.8634  41.8634  42.8496  42.8496  43.7816  43.7816  44.1616  44.1616
    44.7992  44.7992  45.6125  45.6125  46.0938  46.0938  46.6934  46.6934
    46.9453  46.9453  47.3798  47.3798  48.4542  48.4542  49.5922  49.5922
    50.5463  50.5463  50.8584  50.8584  51.2077  51.2077  51.9020  51.9020
    52.5419  52.5419  53.0912  53.0912  54.5052  54.5052  54.7190  54.7190
    55.5209  55.5209  55.6485  55.6485  56.3458  56.3458  56.7941  56.7941
    57.0194  57.0194  57.5656  57.5656  58.0355  58.0355  58.2363  58.2363
    59.1463  59.1463  59.2732  59.2732  60.5608  60.5608  61.4280  61.4280
    61.8853  61.8853  62.5886  62.5886  62.6079  62.6079  63.5265  63.5265
    64.2826  64.2826  64.3301  64.3301  64.5923  64.5923  65.7307  65.7307
    66.0522  66.0522  67.7899  67.7899  68.4783  68.4783  69.3504  69.3504
    69.5945  69.5945  70.5378  70.5378  70.7661  70.7661  71.3414  71.3414
    71.5038  71.5038  71.9272  71.9272  72.6384  72.6384  73.8419  73.8419
    73.8986  73.8986  74.3429  74.3429  74.7909  74.7909  75.1439  75.1439
    75.1962  75.1962  76.8492  76.8492  77.2950  77.2950  77.6460  77.6460
    77.7358  77.7358  78.3797  78.3797  78.7444  78.7444  79.1549  79.1549
    79.2617  79.2617  79.6577  79.6577  80.8170  80.8170  81.4642  81.4642
    81.6664  81.6664  82.0569  82.0569  82.8092  82.8092  83.4956  83.4956
    84.4478  84.4478  84.9640  84.9640  85.5082  85.5082  85.7851  85.7851
    85.8908  85.8908  86.2314  86.2314  86.8057  86.8057  86.9988  86.9988
    87.6365  87.6365  87.8789  87.8789  88.0189  88.0189  88.1953  88.1953
    89.3046  89.3046  89.6391  89.6391  89.7106  89.7106  90.3234  90.3234
    90.5111  90.5111  90.9813  90.9813  91.5405  91.5405  91.7049  91.7049
    92.0258  92.0258  92.6104  92.6104  93.3120  93.3120  93.5844  93.5844
    94.2953  94.2953  94.7523  94.7523  96.0550  96.0550  96.2361  96.2361
    96.5196  96.5196  97.2720  97.2720  97.5723  97.5723  97.8750  97.8750
    99.1358  99.1358  99.3909  99.3909  99.6066  99.6066 100.0171 100.0171
   100.2622 100.2622 101.7169 101.7169 101.7944 101.7944 101.8548 101.8548
   102.4364 102.4364 102.7877 102.7877 103.2667 103.2667 103.8614 103.8614
   104.8707 104.8707 105.5554 105.5554 106.0102 106.0102 106.3924 106.3924
   107.1404 107.1404 107.5026 107.5026 107.5860 107.5860 108.4390 108.4390
   108.5435 108.5435 109.0421 109.0421 109.1739 109.1739 109.3175 109.3175
   110.1734 110.1734 110.6554 110.6554 110.9050 110.9050 111.1010 111.1010
   111.2996 111.2996 111.6437 111.6437 112.6607 112.6607 113.3948 113.3948
   113.4559 113.4559 113.5420 113.5420 113.8922 113.8922 114.2284 114.2284
   114.3561 114.3561 114.8520 114.8520 115.0103 115.0103 116.0547 116.0547
   116.7259 116.7259 117.1664 117.1664 117.6360 117.6360 117.8551 117.8551
   118.2824 118.2824 118.7021 118.7021 118.9596 118.9596 119.7333 119.7333
   120.4848 120.4848 120.8518 120.8518 120.9482 120.9482 121.0421 121.0421
   121.5421 121.5421 121.7385 121.7385 121.8884 121.8884 122.4230 122.4230
   122.7790 122.7790 123.2730 123.2730 123.4653 123.4653 123.7276 123.7276
   124.0602 124.0602 124.5798 124.5798 126.0432 126.0432 126.2052 126.2052
   126.6536 126.6536 127.6230 127.6230 128.1285 128.1285 128.2475 128.2475
   128.3572 128.3572 128.5438 128.5438 128.8271 128.8271 129.2877 129.2877
   129.4909 129.4909 129.7287 129.7287 130.0902 130.0902 130.5009 130.5009
   130.7869 130.7869 131.3156 131.3156 131.4931 131.4931 131.6194 131.6194
   131.9574 131.9574 132.5279 132.5279 132.8916 132.8916 133.2466 133.2466
   133.6407 133.6407 134.0064 134.0064 134.2149 134.2149 134.5751 134.5751
   135.1271 135.1271 135.9508 135.9508 136.3087 136.3087 136.7843 136.7843
   137.8764 137.8764 138.0756 138.0756 138.3475 138.3475 138.9235 138.9235
   139.2296 139.2296 140.1187 140.1187

          k = 0.5714-0.2857 0.5714 (  7112 PWs)   bands (ev):

   -39.4672 -39.4672 -39.4672 -39.4672 -38.5733 -38.5733 -38.5733 -38.5733
   -38.5726 -38.5726  -9.9602  -9.9602  -9.9523  -9.9523  -7.4067  -7.4067
    -7.3816  -7.3816  -7.3745  -7.3745  -3.9444  -3.9444  -0.0348  -0.0348
     5.7311   5.7311   6.5941   6.5941   7.2944   7.2944   9.1193   9.1193
    10.3941  10.3941  11.5336  11.5336  16.1278  16.1278  17.1181  17.1181
    17.7604  17.7604  19.2194  19.2194  20.8024  20.8024  20.8955  20.8955
    22.5803  22.5803  23.8423  23.8423  24.8718  24.8718  25.7472  25.7472
    26.4906  26.4906  26.9433  26.9433  27.6442  27.6442  28.4433  28.4433
    28.9050  28.9050  30.0374  30.0374  30.1137  30.1137  30.8607  30.8607
    31.5226  31.5226  32.2739  32.2739  32.9510  32.9510  35.2033  35.2033
    35.6560  35.6560  36.1891  36.1891  36.6575  36.6575  38.0403  38.0403
    38.1723  38.1723  39.5935  39.5935  39.7402  39.7402  41.5725  41.5725
    42.6167  42.6167  43.0539  43.0539  44.5820  44.5820  44.9022  44.9022
    45.6370  45.6370  45.9230  45.9230  46.1070  46.1070  47.0650  47.0650
    47.9443  47.9443  48.8303  48.8303  49.4815  49.4815  50.1617  50.1617
    50.3001  50.3001  50.8496  50.8496  50.9779  50.9779  52.0614  52.0614
    52.6444  52.6444  53.0684  53.0684  53.2145  53.2145  53.6594  53.6594
    53.9231  53.9231  54.5109  54.5109  55.7091  55.7091  56.7644  56.7644
    57.4452  57.4452  57.5528  57.5528  58.1601  58.1601  59.1122  59.1122
    59.8594  59.8594  59.9945  59.9945  60.1758  60.1758  61.2936  61.2936
    62.0673  62.0673  62.4172  62.4172  63.5613  63.5613  63.7946  63.7946
    64.0866  64.0866  64.1372  64.1372  64.9266  64.9266  64.9815  64.9815
    65.9564  65.9564  66.7965  66.7965  67.6166  67.6166  68.8780  68.8780
    69.2127  69.2127  69.2610  69.2610  69.7374  69.7374  70.3459  70.3459
    70.7550  70.7550  72.3922  72.3922  72.6315  72.6315  73.6294  73.6294
    73.8292  73.8292  74.0579  74.0579  74.5760  74.5760  74.9909  74.9909
    75.4753  75.4753  76.0758  76.0758  76.7780  76.7780  77.1471  77.1471
    77.7127  77.7127  77.8330  77.8330  79.0232  79.0232  79.3997  79.3997
    80.4327  80.4327  80.8278  80.8278  81.3267  81.3267  82.4060  82.4060
    82.7298  82.7298  83.0876  83.0876  83.3729  83.3729  83.8042  83.8042
    84.1685  84.1685  84.6975  84.6975  84.8879  84.8879  85.1107  85.1107
    85.3364  85.3364  85.4946  85.4946  85.9708  85.9708  86.3589  86.3589
    86.8607  86.8607  87.4680  87.4680  88.6610  88.6610  88.8496  88.8496
    89.0099  89.0099  89.6902  89.6902  89.8920  89.8920  90.0704  90.0704
    90.5907  90.5907  92.0497  92.0497  92.1851  92.1851  93.5021  93.5021
    94.0088  94.0088  94.9781  94.9781  95.0897  95.0897  95.4620  95.4620
    95.8853  95.8853  96.3010  96.3010  96.7989  96.7989  97.0797  97.0797
    97.2160  97.2160  97.5641  97.5641  97.8829  97.8829  98.2600  98.2600
    98.5684  98.5684  99.0619  99.0619  99.4760  99.4760  99.7200  99.7200
   100.4994 100.4994 101.0685 101.0685 101.4743 101.4743 102.5287 102.5287
   102.6196 102.6196 102.6983 102.6983 102.7625 102.7625 103.3496 103.3496
   103.4378 103.4378 103.9173 103.9173 104.6204 104.6204 104.7297 104.7297
   104.7624 104.7624 105.6111 105.6111 106.1995 106.1995 106.4281 106.4281
   107.2690 107.2690 108.0618 108.0618 108.6032 108.6032 108.9604 108.9604
   109.8063 109.8063 110.2073 110.2073 110.8594 110.8594 111.0305 111.0305
   111.7450 111.7450 111.9093 111.9093 112.7278 112.7278 112.9833 112.9833
   113.4477 113.4477 114.5214 114.5214 114.7388 114.7388 114.9466 114.9466
   115.2707 115.2707 115.7558 115.7558 116.2452 116.2452 116.3793 116.3793
   116.8223 116.8223 117.6500 117.6500 118.3040 118.3040 118.4435 118.4435
   118.7857 118.7857 119.4706 119.4706 119.8923 119.8923 120.0170 120.0170
   120.6881 120.6881 120.7304 120.7304 120.9729 120.9729 121.1694 121.1694
   121.4612 121.4612 121.8460 121.8460 122.3455 122.3455 122.4367 122.4367
   122.8858 122.8858 123.3155 123.3155 123.3652 123.3652 123.4522 123.4522
   123.7677 123.7677 124.2900 124.2900 124.9926 124.9926 125.4483 125.4483
   125.7875 125.7875 126.1496 126.1496 126.9643 126.9643 127.4787 127.4787
   127.8898 127.8898 128.1708 128.1708 128.4076 128.4076 128.5910 128.5910
   128.8350 128.8350 129.5431 129.5431 129.6667 129.6667 130.2423 130.2423
   130.7244 130.7244 131.4640 131.4640 131.6612 131.6612 131.8223 131.8223
   132.4289 132.4289 132.6478 132.6478 132.7044 132.7044 132.9146 132.9146
   134.2493 134.2493 134.4540 134.4540 134.5095 134.5095 134.8325 134.8325
   135.8100 135.8100 135.9722 135.9722 136.5534 136.5534 136.5787 136.5787
   137.0796 137.0796 137.5979 137.5979 138.0280 138.0280 138.3030 138.3030
   138.5862 138.5862 138.8868 138.8868

          k = 0.4286-0.1429 0.4286 (  7130 PWs)   bands (ev):

   -39.4672 -39.4672 -39.4672 -39.4672 -38.5733 -38.5733 -38.5733 -38.5733
   -38.5726 -38.5726  -9.9597  -9.9597  -9.9536  -9.9536  -7.4008  -7.4008
    -7.3839  -7.3839  -7.3774  -7.3774  -4.1808  -4.1808   0.3297   0.3297
     5.6216   5.6216   6.9381   6.9381   7.7394   7.7394   8.8267   8.8267
    10.3211  10.3211  12.0336  12.0336  15.3392  15.3392  16.2183  16.2183
    18.1470  18.1470  18.6093  18.6093  19.3267  19.3267  22.3291  22.3291
    22.5916  22.5916  23.0551  23.0551  23.4554  23.4554  24.1411  24.1411
    26.8193  26.8193  27.0493  27.0493  28.6345  28.6345  29.0374  29.0374
    30.9644  30.9644  31.0651  31.0651  31.5095  31.5095  31.6447  31.6447
    31.9968  31.9968  33.8535  33.8535  34.3568  34.3568  35.3570  35.3570
    35.7543  35.7543  36.5417  36.5417  37.0758  37.0758  37.9794  37.9794
    38.5526  38.5526  38.7656  38.7656  39.3423  39.3423  40.8189  40.8189
    40.9327  40.9327  41.8239  41.8239  43.3375  43.3375  44.0261  44.0261
    44.4349  44.4349  44.8138  44.8138  46.1312  46.1312  47.1211  47.1211
    47.2548  47.2548  47.4034  47.4034  48.4239  48.4239  49.3590  49.3590
    49.9160  49.9160  50.0131  50.0131  51.1577  51.1577  51.4983  51.4983
    52.5887  52.5887  52.9037  52.9037  52.9496  52.9496  53.9113  53.9113
    55.4632  55.4632  55.9642  55.9642  56.2151  56.2151  56.5742  56.5742
    56.8736  56.8736  57.8501  57.8501  58.8395  58.8395  58.9194  58.9194
    59.3921  59.3921  59.7051  59.7051  61.0659  61.0659  61.5626  61.5626
    62.0532  62.0532  62.9735  62.9735  63.3660  63.3660  63.8219  63.8219
    64.1988  64.1988  64.9205  64.9205  65.3952  65.3952  66.5122  66.5122
    67.0395  67.0395  68.1226  68.1226  68.5884  68.5884  68.7855  68.7855
    69.4526  69.4526  70.2480  70.2480  70.9393  70.9393  71.4385  71.4385
    71.4843  71.4843  71.7716  71.7716  73.0767  73.0767  73.7052  73.7052
    73.9429  73.9429  74.2148  74.2148  74.7236  74.7236  75.3736  75.3736
    75.3918  75.3918  76.0509  76.0509  76.1351  76.1351  77.7363  77.7363
    78.0276  78.0276  79.2187  79.2187  79.7777  79.7777  80.1053  80.1053
    80.5508  80.5508  81.0459  81.0459  81.4791  81.4791  82.0745  82.0745
    82.3729  82.3729  82.6043  82.6043  82.9848  82.9848  83.4333  83.4333
    83.5684  83.5684  83.7809  83.7809  84.0982  84.0982  84.6040  84.6040
    85.5224  85.5224  85.8591  85.8591  85.9094  85.9094  86.1002  86.1002
    86.6353  86.6353  86.8390  86.8390  87.3190  87.3190  87.7306  87.7306
    88.7038  88.7038  89.2422  89.2422  89.5781  89.5781  89.9802  89.9802
    90.1943  90.1943  91.1556  91.1556  91.2786  91.2786  91.9913  91.9913
    92.8817  92.8817  93.1452  93.1452  93.5468  93.5468  94.2080  94.2080
    94.3960  94.3960  94.7418  94.7418  94.8453  94.8453  95.4340  95.4340
    96.0284  96.0284  96.3452  96.3452  96.5207  96.5207  97.3377  97.3377
    97.7195  97.7195  98.5615  98.5615  99.0241  99.0241 100.5087 100.5087
   101.1004 101.1004 101.1923 101.1923 101.7244 101.7244 101.7897 101.7897
   102.7288 102.7288 103.6963 103.6963 103.8981 103.8981 104.8089 104.8089
   105.0736 105.0736 105.2760 105.2760 105.7970 105.7970 105.8999 105.8999
   106.4170 106.4170 106.9681 106.9681 107.3778 107.3778 107.8190 107.8190
   108.8960 108.8960 109.6417 109.6417 109.8995 109.8995 109.9828 109.9828
   110.4363 110.4363 110.4955 110.4955 110.9151 110.9151 111.8534 111.8534
   112.0726 112.0726 112.3592 112.3592 112.4353 112.4353 112.7282 112.7282
   113.5913 113.5913 113.7565 113.7565 115.0463 115.0463 115.1088 115.1088
   115.3825 115.3825 115.6543 115.6543 115.8803 115.8803 116.5301 116.5301
   116.8623 116.8623 117.0942 117.0942 117.5803 117.5803 118.1771 118.1771
   118.6455 118.6455 119.0082 119.0082 119.5522 119.5522 120.2420 120.2420
   120.3819 120.3819 121.0413 121.0413 121.2784 121.2784 121.3434 121.3434
   121.5336 121.5336 121.6282 121.6282 122.2798 122.2798 122.7345 122.7345
   122.8373 122.8373 122.9012 122.9012 122.9844 122.9844 123.6496 123.6496
   124.3877 124.3877 124.9205 124.9205 125.5158 125.5158 125.6420 125.6420
   125.7100 125.7100 125.9505 125.9505 127.0205 127.0205 127.8313 127.8313
   128.2739 128.2739 128.5731 128.5731 128.9192 128.9192 129.1931 129.1931
   129.4587 129.4587 130.1419 130.1419 130.8910 130.8910 131.4735 131.4735
   132.0997 132.0997 132.3504 132.3504 132.4833 132.4833 132.6556 132.6556
   132.8539 132.8539 133.4207 133.4207 133.7071 133.7071 134.1398 134.1398
   134.4630 134.4630 135.0653 135.0653 135.1321 135.1321 135.5936 135.5936
   136.2018 136.2018 136.4220 136.4220 137.1167 137.1167 137.3089 137.3089
   137.5671 137.5671 137.6080 137.6080 137.7770 137.7771 138.2048 138.2049
   138.4149 138.4150 138.6891 138.6891

          k = 0.2857-0.0000 0.2857 (  7137 PWs)   bands (ev):

   -39.4672 -39.4672 -39.4672 -39.4672 -38.5733 -38.5733 -38.5733 -38.5733
   -38.5727 -38.5727  -9.9592  -9.9592  -9.9559  -9.9559  -7.3933  -7.3933
    -7.3875  -7.3875  -7.3815  -7.3815  -4.5234  -4.5234   0.9397   0.9397
     5.9062   5.9062   6.9003   6.9003   7.4287   7.4287   9.5534   9.5534
    11.0292  11.0292  12.4473  12.4473  14.8435  14.8435  15.3325  15.3325
    16.5141  16.5141  17.3198  17.3198  19.5246  19.5246  19.7770  19.7770
    20.2840  20.2840  23.0107  23.0107  25.4401  25.4401  25.7715  25.7715
    27.0502  27.0502  27.1363  27.1363  29.5027  29.5027  30.7972  30.7972
    31.9023  31.9023  32.1010  32.1010  32.5977  32.5977  32.6320  32.6320
    34.9008  34.9008  35.2000  35.2000  35.9229  35.9229  36.1330  36.1330
    36.3156  36.3156  36.4401  36.4401  36.8710  36.8710  37.3682  37.3682
    37.5827  37.5827  39.3987  39.3987  40.0887  40.0887  40.1759  40.1759
    40.6987  40.6987  41.2274  41.2274  41.8732  41.8732  42.4927  42.4927
    43.2893  43.2893  43.8462  43.8462  44.4057  44.4057  45.5892  45.5892
    46.2798  46.2798  47.2181  47.2181  47.5187  47.5187  47.8550  47.8550
    48.1880  48.1880  48.3060  48.3060  48.4749  48.4749  48.8157  48.8157
    52.0067  52.0067  52.2347  52.2347  52.3605  52.3605  53.3614  53.3614
    53.3804  53.3804  53.9983  53.9983  56.1908  56.1908  57.3610  57.3610
    58.6314  58.6314  59.5104  59.5104  60.1855  60.1855  60.4698  60.4698
    61.2868  61.2868  61.3654  61.3654  62.2111  62.2111  62.7226  62.7226
    63.1760  63.1760  64.9116  64.9116  65.0340  65.0340  65.9331  65.9331
    66.3104  66.3104  66.6644  66.6644  67.2184  67.2184  68.3473  68.3473
    68.5180  68.5180  68.6351  68.6351  68.7841  68.7841  69.4391  69.4391
    70.1200  70.1200  70.2074  70.2074  70.2125  70.2125  71.6565  71.6565
    72.0455  72.0455  72.2974  72.2974  73.0881  73.0881  73.9048  73.9048
    74.2306  74.2306  74.5515  74.5515  75.1033  75.1033  75.5998  75.5998
    75.9765  75.9765  77.2444  77.2444  77.2607  77.2607  77.5043  77.5043
    78.1694  78.1694  78.7770  78.7770  79.1501  79.1501  79.5481  79.5481
    79.8654  79.8654  80.3325  80.3325  80.8024  80.8024  81.0940  81.0940
    81.4626  81.4626  81.6273  81.6273  82.1141  82.1141  82.2150  82.2150
    82.2394  82.2394  83.2378  83.2378  83.3910  83.3910  83.6871  83.6871
    84.1445  84.1445  85.0312  85.0312  85.4741  85.4741  85.8004  85.8004
    86.1011  86.1011  86.9997  86.9997  87.1799  87.1799  87.3354  87.3354
    88.0977  88.0977  88.8952  88.8952  88.9106  88.9106  89.5177  89.5177
    89.7153  89.7153  89.7541  89.7541  89.9694  89.9694  90.7492  90.7492
    91.0192  91.0192  93.1699  93.1699  93.2496  93.2496  93.8511  93.8511
    94.0495  94.0495  94.1676  94.1676  94.5053  94.5053  94.7194  94.7194
    94.9572  94.9572  96.6268  96.6268  96.8831  96.8831  97.5570  97.5570
    97.6128  97.6128  98.4503  98.4503  99.3930  99.3930  99.5741  99.5741
   100.6783 100.6783 100.7563 100.7563 101.2349 101.2349 101.4455 101.4455
   101.5755 101.5755 102.0152 102.0152 102.5820 102.5820 102.9587 102.9587
   103.5909 103.5909 104.1088 104.1088 104.6430 104.6430 105.1878 105.1878
   107.5955 107.5955 107.6956 107.6956 108.0779 108.0779 108.2563 108.2563
   108.6971 108.6971 109.2908 109.2908 110.4475 110.4475 110.5860 110.5860
   110.6749 110.6749 111.0665 111.0665 111.3223 111.3223 111.8953 111.8953
   111.9837 111.9837 113.6117 113.6117 113.7771 113.7771 114.3672 114.3672
   114.7152 114.7152 115.0749 115.0749 115.1794 115.1794 115.2622 115.2622
   116.1669 116.1669 116.3131 116.3131 117.8582 117.8582 117.8766 117.8766
   117.9874 117.9874 118.3292 118.3292 118.6442 118.6442 119.5260 119.5260
   119.9690 119.9690 120.2091 120.2091 120.8280 120.8280 121.0333 121.0333
   121.4900 121.4900 121.5403 121.5403 121.7885 121.7885 122.5888 122.5888
   122.6720 122.6720 122.8944 122.8944 123.4270 123.4270 123.5674 123.5674
   123.6259 123.6259 124.2515 124.2515 124.5769 124.5769 125.1353 125.1353
   125.6428 125.6428 125.9321 125.9321 126.5342 126.5342 127.2247 127.2247
   127.5688 127.5688 128.1254 128.1254 128.4375 128.4375 128.7050 128.7050
   128.8833 128.8833 128.9417 128.9417 129.5335 129.5335 129.9792 129.9792
   130.1021 130.1021 130.1388 130.1388 130.5948 130.5948 130.9583 130.9583
   131.1005 131.1005 131.8301 131.8301 132.3774 132.3774 132.8710 132.8710
   133.0458 133.0458 133.6417 133.6417 133.9747 133.9747 134.0749 134.0749
   134.1806 134.1806 134.9905 134.9905 135.4908 135.4908 135.6026 135.6026
   135.7279 135.7279 135.9094 135.9094 136.6801 136.6801 136.8617 136.8617
   137.5434 137.5434 137.9414 137.9414 138.5957 138.5957 138.6466 138.6466
   138.9456 138.9459 139.1276 139.1280

          k = 0.0000 0.5714 0.0000 (  7131 PWs)   bands (ev):

   -39.4672 -39.4672 -39.4672 -39.4672 -38.5733 -38.5733 -38.5733 -38.5733
   -38.5726 -38.5726  -9.9603  -9.9603  -9.9556  -9.9556  -7.4155  -7.4155
    -7.3894  -7.3894  -7.3699  -7.3699  -4.2271  -4.2271   0.8493   0.8493
     5.4828   5.4828   5.9850   5.9850   6.1152   6.1152  10.6764  10.6764
    12.3309  12.3309  12.7849  12.7849  13.3554  13.3554  17.5591  17.5591
    18.0208  18.0208  18.1515  18.1515  18.5195  18.5195  21.0350  21.0350
    22.2621  22.2621  23.2838  23.2838  23.4230  23.4230  24.0752  24.0752
    24.7480  24.7480  28.0981  28.0981  29.3487  29.3487  29.4625  29.4625
    30.1857  30.1857  30.2951  30.2951  30.4657  30.4657  33.5212  33.5212
    34.0219  34.0219  34.7498  34.7498  35.5727  35.5727  36.3526  36.3526
    36.5633  36.5633  38.0293  38.0293  38.0955  38.0955  38.2485  38.2485
    39.0104  39.0104  39.0622  39.0622  39.7720  39.7720  40.4204  40.4204
    40.6166  40.6166  40.8484  40.8484  41.2158  41.2158  41.5573  41.5573
    41.7321  41.7321  42.9484  42.9484  44.5245  44.5245  46.6340  46.6340
    46.9932  46.9932  47.2078  47.2078  47.9735  47.9735  49.1467  49.1467
    49.2475  49.2475  50.4396  50.4396  52.6889  52.6889  52.7133  52.7133
    52.7380  52.7380  53.9906  53.9906  54.3089  54.3089  54.3149  54.3149
    54.3662  54.3662  55.7984  55.7984  55.8917  55.8917  58.4738  58.4738
    59.0138  59.0138  59.0795  59.0795  59.1904  59.1904  59.4388  59.4388
    59.9565  59.9565  60.0478  60.0478  60.6053  60.6053  60.8977  60.8977
    60.9849  60.9849  62.4060  62.4060  62.5441  62.5441  63.1853  63.1853
    63.7832  63.7832  64.1734  64.1734  66.3749  66.3749  66.7770  66.7770
    67.0045  67.0045  67.4732  67.4732  67.8719  67.8719  68.0454  68.0454
    68.2364  68.2364  69.8801  69.8801  70.5766  70.5766  71.5112  71.5112
    71.7850  71.7850  73.2700  73.2700  74.0628  74.0628  74.4425  74.4425
    74.5849  74.5849  74.9129  74.9129  75.7873  75.7873  76.7599  76.7599
    76.7899  76.7899  77.5225  77.5225  77.6661  77.6661  77.7734  77.7734
    77.9586  77.9586  79.0190  79.0190  79.2893  79.2893  79.5234  79.5234
    79.6964  79.6964  80.8632  80.8632  80.9385  80.9385  81.1810  81.1810
    81.4077  81.4077  81.6945  81.6945  82.5318  82.5318  82.8613  82.8613
    82.9497  82.9497  83.6868  83.6868  84.4380  84.4380  84.8914  84.8914
    85.1338  85.1338  85.5459  85.5459  85.6387  85.6387  85.7161  85.7161
    85.9862  85.9862  86.1031  86.1031  86.1808  86.1808  86.9517  86.9517
    87.0814  87.0814  88.5392  88.5392  88.5731  88.5731  88.6453  88.6453
    89.0493  89.0493  90.3593  90.3593  90.7506  90.7506  91.4451  91.4451
    91.6102  91.6102  91.9650  91.9650  94.4889  94.4889  94.8079  94.8079
    95.3129  95.3129  96.2451  96.2451  96.4515  96.4515  96.7420  96.7420
    97.7127  97.7127  97.9741  97.9741  98.0059  98.0059  99.0734  99.0734
    99.3426  99.3426  99.5228  99.5228  99.9589  99.9589 100.1508 100.1508
   100.7023 100.7023 101.3003 101.3003 102.0856 102.0856 102.1279 102.1279
   102.4305 102.4305 103.4941 103.4941 103.7023 103.7023 104.1348 104.1348
   104.3828 104.3828 105.8181 105.8181 106.2396 106.2396 106.6188 106.6188
   107.4140 107.4140 107.5729 107.5729 108.5451 108.5451 109.1826 109.1826
   109.2251 109.2251 109.2857 109.2857 109.5385 109.5385 109.6929 109.6929
   110.3177 110.3177 110.4512 110.4512 110.4944 110.4944 111.0675 111.0675
   111.5827 111.5827 112.5094 112.5094 112.5132 112.5132 113.1783 113.1783
   113.3839 113.3839 114.0449 114.0449 114.7836 114.7836 115.3283 115.3283
   115.3534 115.3534 115.4206 115.4206 115.4611 115.4611 116.3048 116.3048
   116.7020 116.7020 116.7146 116.7146 117.6273 117.6273 117.8949 117.8949
   118.6972 118.6972 118.9594 118.9594 119.0249 119.0249 119.4462 119.4462
   120.2306 120.2306 120.3150 120.3150 120.4193 120.4193 120.7680 120.7680
   120.8156 120.8156 120.8165 120.8165 120.9068 120.9068 121.3346 121.3346
   121.3429 121.3429 121.8640 121.8640 122.4720 122.4720 122.6674 122.6674
   123.4701 123.4701 124.5617 124.5617 124.7137 124.7137 125.8784 125.8784
   126.4567 126.4567 126.8900 126.8900 127.0379 127.0379 127.4551 127.4551
   127.7243 127.7243 127.7644 127.7644 127.7764 127.7764 128.0880 128.0880
   128.1451 128.1451 128.7911 128.7911 129.2500 129.2500 130.0368 130.0368
   130.3166 130.3166 132.2363 132.2363 133.4483 133.4483 133.9197 133.9197
   134.4215 134.4215 134.4505 134.4505 134.5610 134.5610 135.2908 135.2908
   135.3778 135.3778 136.4171 136.4171 136.9088 136.9088 137.3821 137.3821
   137.4745 137.4745 137.5969 137.5969 138.1040 138.1040 138.2729 138.2729
   138.9027 138.9027 139.0693 139.0693 139.0989 139.0989 139.6382 139.6382
   139.8724 139.8724 139.8945 139.8947

          k =-0.1429 0.7143-0.1429 (  7121 PWs)   bands (ev):

   -39.4672 -39.4672 -39.4672 -39.4672 -38.5733 -38.5733 -38.5733 -38.5733
   -38.5726 -38.5726  -9.9616  -9.9616  -9.9543  -9.9543  -7.4266  -7.4266
    -7.3885  -7.3885  -7.3656  -7.3656  -3.9517  -3.9517   0.6041   0.6041
     4.9763   4.9763   5.5299   5.5299   5.9761   5.9761  11.2045  11.2045
    12.2550  12.2550  12.7510  12.7510  13.4925  13.4925  18.4923  18.4923
    19.1124  19.1124  19.3100  19.3100  19.6831  19.6831  20.6999  20.6999
    21.5454  21.5454  23.1922  23.1922  23.7987  23.7987  24.5531  24.5531
    24.5987  24.5987  27.2590  27.2590  28.1978  28.1978  28.3673  28.3673
    28.5434  28.5434  29.7368  29.7368  30.8021  30.8021  32.5989  32.5989
    32.8116  32.8116  33.3174  33.3174  34.7482  34.7482  35.4446  35.4446
    36.3090  36.3090  36.7136  36.7136  37.7987  37.7987  38.0902  38.0902
    38.8033  38.8033  39.0305  39.0305  40.3850  40.3850  40.7508  40.7508
    41.7910  41.7910  42.4061  42.4061  42.4845  42.4845  43.0769  43.0769
    43.9124  43.9124  45.1876  45.1876  45.2451  45.2451  45.9116  45.9116
    47.4328  47.4328  48.2390  48.2390  48.5881  48.5881  49.5809  49.5809
    50.7908  50.7908  51.6151  51.6151  51.8563  51.8563  52.3385  52.3385
    52.8768  52.8768  54.7812  54.7812  55.0254  55.0254  55.7101  55.7101
    56.0515  56.0515  56.1109  56.1109  56.3268  56.3268  56.6975  56.6975
    57.0641  57.0641  57.7231  57.7231  57.8179  57.8179  58.8534  58.8534
    59.2533  59.2533  59.7368  59.7368  60.2046  60.2046  60.7055  60.7055
    61.6067  61.6067  62.5664  62.5664  62.8744  62.8744  63.4295  63.4295
    63.8564  63.8564  64.0686  64.0686  64.2812  64.2812  65.1194  65.1194
    65.6736  65.6736  67.2269  67.2269  67.3491  67.3491  68.6190  68.6190
    69.0980  69.0980  69.4588  69.4588  69.8406  69.8406  70.2305  70.2305
    71.8173  71.8173  71.9587  71.9587  72.2417  72.2417  73.5356  73.5356
    74.0474  74.0474  74.2103  74.2103  74.9042  74.9042  75.3333  75.3333
    75.6214  75.6214  76.5504  76.5504  77.1948  77.1948  77.5619  77.5619
    77.8233  77.8233  78.0857  78.0857  78.5878  78.5878  78.7188  78.7188
    79.8057  79.8057  79.8807  79.8807  80.7455  80.7455  80.9084  80.9084
    81.7154  81.7154  82.1209  82.1209  82.5989  82.5989  83.2334  83.2334
    83.7377  83.7377  84.4598  84.4598  84.5516  84.5516  85.1053  85.1053
    85.5033  85.5033  85.7549  85.7549  86.5076  86.5076  87.1069  87.1069
    87.3564  87.3564  87.6159  87.6159  87.7895  87.7895  88.5931  88.5931
    89.0977  89.0977  89.1880  89.1880  90.7836  90.7836  91.2150  91.2150
    91.6819  91.6819  92.6700  92.6700  92.7609  92.7609  92.8339  92.8339
    93.2246  93.2246  94.1631  94.1631  94.2805  94.2805  94.9945  94.9945
    95.5360  95.5360  95.8417  95.8417  96.0102  96.0102  96.3485  96.3485
    96.5221  96.5221  96.7651  96.7651  97.1218  97.1218  98.9851  98.9851
    99.5093  99.5093  99.9663  99.9663 100.2207 100.2207 100.8436 100.8436
   102.0841 102.0841 102.7699 102.7699 102.8937 102.8937 103.1917 103.1917
   103.4454 103.4454 103.6755 103.6755 104.0008 104.0008 104.6610 104.6610
   105.3123 105.3123 105.6561 105.6561 105.8651 105.8651 106.1638 106.1638
   106.5205 106.5205 106.8676 106.8676 107.4163 107.4163 107.9717 107.9717
   108.0469 108.0469 108.8526 108.8526 109.5849 109.5849 109.7816 109.7816
   109.8181 109.8181 110.1114 110.1114 110.5959 110.5959 111.0519 111.0519
   111.7010 111.7010 111.8480 111.8480 112.1889 112.1889 112.2152 112.2152
   112.9740 112.9740 113.2142 113.2142 113.5761 113.5761 114.0565 114.0565
   114.1922 114.1922 114.3573 114.3573 114.5935 114.5935 115.3014 115.3014
   116.1278 116.1278 116.1874 116.1874 116.5320 116.5320 116.6658 116.6658
   116.8997 116.8997 117.0405 117.0405 117.5416 117.5416 117.6167 117.6167
   118.2298 118.2298 118.5665 118.5665 118.9297 118.9297 119.3108 119.3108
   119.8655 119.8655 120.6075 120.6075 121.0084 121.0084 121.1967 121.1967
   121.9210 121.9210 122.1471 122.1471 123.0422 123.0422 123.3503 123.3503
   123.9023 123.9023 124.5291 124.5291 124.9058 124.9058 125.4046 125.4046
   126.2127 126.2127 126.8442 126.8442 126.9761 126.9761 127.0610 127.0610
   127.3041 127.3041 128.0877 128.0877 128.1371 128.1371 128.8543 128.8543
   129.6012 129.6012 130.4663 130.4663 130.5092 130.5092 130.8478 130.8478
   131.3173 131.3173 132.4921 132.4921 132.8420 132.8420 133.2425 133.2425
   133.4072 133.4072 133.6872 133.6872 134.1583 134.1583 134.8427 134.8427
   135.0970 135.0970 135.3138 135.3138 135.3560 135.3560 135.5506 135.5506
   136.3209 136.3209 136.6022 136.6022 136.7626 136.7626 137.3395 137.3395
   137.4736 137.4736 137.8307 137.8307 137.8677 137.8677 138.1652 138.1652
   139.0862 139.0862 139.3122 139.3122

          k = 0.7143-0.1429 0.7143 (  7128 PWs)   bands (ev):

   -39.4672 -39.4672 -39.4672 -39.4672 -38.5733 -38.5733 -38.5733 -38.5733
   -38.5726 -38.5726  -9.9613  -9.9613  -9.9537  -9.9537  -7.4244  -7.4244
    -7.3865  -7.3865  -7.3683  -7.3683  -3.7926  -3.7926   0.3048   0.3048
     4.5061   4.5061   5.8474   5.8474   6.3513   6.3513  10.5583  10.5583
    11.7235  11.7235  12.8841  12.8841  14.4988  14.4988  17.6802  17.6802
    18.2530  18.2530  19.9808  19.9808  21.0494  21.0494  21.3550  21.3550
    22.6944  22.6944  23.0835  23.0835  24.1495  24.1495  25.4064  25.4064
    25.6325  25.6325  26.7428  26.7428  27.2630  27.2630  27.4903  27.4903
    28.5763  28.5763  28.8926  28.8926  30.7357  30.7357  31.1081  31.1081
    31.2814  31.2814  32.3789  32.3789  32.6469  32.6469  34.0890  34.0890
    36.1172  36.1172  36.6342  36.6342  37.4799  37.4799  37.8258  37.8258
    39.7547  39.7547  40.3329  40.3329  41.4912  41.4912  41.7540  41.7540
    42.2831  42.2831  43.2412  43.2412  43.6724  43.6724  45.4187  45.4187
    45.5137  45.5137  45.9017  45.9017  46.4937  46.4937  46.8988  46.8988
    47.1638  47.1638  47.8164  47.8164  48.1499  48.1499  49.4538  49.4538
    50.4802  50.4802  50.6639  50.6639  51.4177  51.4177  52.0881  52.0881
    52.2811  52.2811  53.4955  53.4955  54.0553  54.0553  54.3087  54.3087
    55.3143  55.3143  55.6714  55.6714  56.3683  56.3683  56.6657  56.6657
    57.9302  57.9302  58.0563  58.0563  58.8408  58.8408  59.0605  59.0605
    59.5062  59.5062  59.9207  59.9207  60.8148  60.8148  61.0675  61.0675
    61.5786  61.5786  62.4295  62.4295  62.5540  62.5540  63.6510  63.6510
    63.7254  63.7254  64.9035  64.9035  65.4171  65.4171  66.1622  66.1622
    66.6784  66.6784  67.0864  67.0864  67.9479  67.9479  68.3905  68.3905
    68.4889  68.4889  69.1639  69.1639  69.4015  69.4015  69.7971  69.7971
    69.9557  69.9557  70.6508  70.6508  70.6814  70.6814  71.2471  71.2471
    72.6058  72.6058  73.0955  73.0955  73.1335  73.1335  74.4966  74.4966
    75.1871  75.1871  75.7349  75.7349  76.6684  76.6684  76.7745  76.7745
    77.7926  77.7926  77.8802  77.8802  78.4538  78.4538  78.9094  78.9094
    79.4301  79.4301  79.8950  79.8950  81.1184  81.1184  81.2556  81.2556
    81.4792  81.4792  82.0759  82.0759  83.0309  83.0309  84.1772  84.1772
    84.4611  84.4611  85.3165  85.3165  85.4259  85.4259  85.5210  85.5210
    86.0870  86.0870  87.1881  87.1881  87.3742  87.3742  87.9599  87.9599
    88.5806  88.5806  88.7223  88.7223  88.9516  88.9516  89.7059  89.7059
    90.1678  90.1678  91.1542  91.1542  91.6369  91.6369  91.9836  91.9836
    92.2697  92.2697  92.4817  92.4817  93.2014  93.2014  93.7854  93.7854
    93.9885  93.9885  94.8386  94.8386  95.2037  95.2037  95.2671  95.2671
    95.8071  95.8071  96.0099  96.0099  96.4797  96.4797  97.1003  97.1003
    97.3029  97.3029  97.6288  97.6288  97.8660  97.8660  98.3866  98.3866
    99.1027  99.1027 100.0403 100.0403 100.1122 100.1122 100.7658 100.7658
   100.7909 100.7909 101.2903 101.2903 102.2219 102.2219 102.5653 102.5653
   102.7592 102.7592 103.3725 103.3725 103.4309 103.4309 104.0050 104.0050
   104.2094 104.2094 104.4201 104.4201 105.1948 105.1948 105.6596 105.6596
   106.6374 106.6374 106.6999 106.6999 107.0945 107.0945 107.3582 107.3582
   107.6213 107.6213 108.1679 108.1679 108.3976 108.3976 108.4774 108.4774
   109.1341 109.1341 109.2014 109.2014 109.3528 109.3528 109.5568 109.5568
   110.2924 110.2924 110.8503 110.8503 111.1921 111.1921 111.5335 111.5335
   111.9659 111.9659 112.6065 112.6065 112.9859 112.9859 113.1565 113.1565
   113.2771 113.2771 114.0050 114.0050 115.1110 115.1110 115.8080 115.8080
   115.9313 115.9313 116.8012 116.8012 117.4514 117.4514 117.6445 117.6445
   117.8551 117.8551 118.0467 118.0467 118.7202 118.7202 119.1957 119.1957
   119.8463 119.8463 120.1405 120.1405 120.2592 120.2592 120.5747 120.5747
   120.9412 120.9412 121.3781 121.3781 121.7227 121.7227 121.7880 121.7880
   123.1722 123.1722 123.3193 123.3193 123.8202 123.8202 124.4267 124.4267
   124.7798 124.7798 125.0835 125.0835 125.6931 125.6931 125.9058 125.9058
   126.6205 126.6205 126.6646 126.6646 126.9758 126.9758 127.0652 127.0652
   127.4441 127.4441 127.5965 127.5965 128.0004 128.0004 128.2348 128.2348
   128.5518 128.5518 128.8988 128.8988 129.4830 129.4830 129.5902 129.5902
   130.0125 130.0125 130.4265 130.4265 130.6060 130.6060 130.7751 130.7751
   131.6028 131.6028 132.7679 132.7679 133.0720 133.0720 133.1593 133.1593
   134.0154 134.0154 134.5253 134.5253 134.7355 134.7355 134.9930 134.9930
   135.3990 135.3990 136.1849 136.1849 136.8295 136.8295 137.1630 137.1630
   137.3110 137.3110 137.9587 137.9587 138.4216 138.4216 138.9881 138.9881
   139.5638 139.5639 139.9849 139.9849

          k = 0.5714 0.0000 0.5714 (  7101 PWs)   bands (ev):

   -39.4672 -39.4672 -39.4672 -39.4672 -38.5733 -38.5733 -38.5733 -38.5733
   -38.5726 -38.5726  -9.9600  -9.9600  -9.9538  -9.9538  -7.4117  -7.4117
    -7.3856  -7.3856  -7.3741  -7.3741  -3.9055  -3.9055   0.2085   0.2085
     4.7404   4.7404   6.4460   6.4460   7.0458   7.0458   9.5986   9.5986
    10.8304  10.8304  12.7206  12.7206  16.2863  16.2863  16.7103  16.7103
    16.8708  16.8708  18.7536  18.7536  20.6391  20.6391  22.9939  22.9939
    23.2700  23.2700  24.4593  24.4593  24.9635  24.9635  25.1509  25.1509
    25.2015  25.2015  25.7013  25.7013  26.9791  26.9791  27.8946  27.8946
    28.6709  28.6709  28.8405  28.8405  31.0603  31.0603  31.1598  31.1598
    32.2211  32.2211  32.6587  32.6587  33.1021  33.1021  33.8661  33.8661
    36.5170  36.5170  36.9572  36.9572  37.3292  37.3292  37.3381  37.3381
    39.3197  39.3197  40.3022  40.3022  40.7824  40.7824  41.3346  41.3346
    41.8124  41.8124  43.3568  43.3568  44.0298  44.0298  44.6565  44.6565
    44.7644  44.7644  45.6918  45.6918  46.1165  46.1165  47.0853  47.0853
    47.9396  47.9396  48.2438  48.2438  48.8480  48.8480  49.2128  49.2128
    49.6379  49.6379  51.4120  51.4120  51.9435  51.9435  52.4870  52.4870
    52.5757  52.5757  52.9042  52.9042  53.1275  53.1275  53.5340  53.5340
    54.7233  54.7233  55.6663  55.6663  55.7138  55.7138  55.8076  55.8076
    56.8435  56.8435  57.2764  57.2764  57.7372  57.7372  59.0319  59.0319
    60.7533  60.7533  61.1229  61.1229  61.6714  61.6714  62.0501  62.0501
    62.4843  62.4843  63.2575  63.2575  63.8780  63.8780  63.9719  63.9719
    64.4042  64.4042  65.1367  65.1367  66.1000  66.1000  66.1477  66.1477
    66.3994  66.3994  66.6574  66.6574  66.8223  66.8223  66.9155  66.9155
    67.7690  67.7690  68.0109  68.0109  68.6825  68.6825  69.4583  69.4583
    69.6964  69.6964  69.9131  69.9131  71.0807  71.0807  71.7855  71.7855
    74.5662  74.5662  74.8612  74.8612  75.1464  75.1464  75.5403  75.5403
    76.0433  76.0433  76.0763  76.0763  76.8606  76.8606  76.9396  76.9396
    78.1256  78.1256  78.6215  78.6215  78.7027  78.7027  79.2795  79.2795
    80.1679  80.1679  80.3865  80.3865  81.2256  81.2256  82.1960  82.1960
    82.2550  82.2550  82.3926  82.3926  82.4308  82.4308  83.0408  83.0408
    83.6712  83.6712  84.2016  84.2016  84.3719  84.3719  85.5240  85.5240
    86.3392  86.3392  86.4187  86.4187  87.2429  87.2429  87.8337  87.8337
    87.9774  87.9774  88.9380  88.9380  89.1965  89.1965  89.2251  89.2251
    89.7007  89.7007  90.0891  90.0891  90.3211  90.3211  90.8144  90.8144
    91.4387  91.4387  91.6130  91.6130  91.7226  91.7226  91.7307  91.7307
    92.6641  92.6641  93.2102  93.2102  94.2855  94.2855  95.3347  95.3347
    96.0898  96.0898  96.5596  96.5596  97.3194  97.3194  97.8678  97.8678
    98.2988  98.2988  99.2550  99.2550  99.3556  99.3556  99.6699  99.6699
    99.9899  99.9899 100.2351 100.2351 100.6437 100.6437 100.7446 100.7446
   100.7977 100.7977 100.9653 100.9653 101.0302 101.0302 101.1676 101.1676
   101.8681 101.8681 101.9420 101.9420 101.9850 101.9850 102.7543 102.7543
   103.2554 103.2554 103.5197 103.5197 104.5714 104.5714 104.7916 104.7916
   105.0622 105.0622 105.3299 105.3299 105.8195 105.8195 105.9998 105.9998
   106.2852 106.2852 108.9234 108.9234 109.0571 109.0571 109.3296 109.3296
   110.2472 110.2472 110.5733 110.5733 111.0192 111.0192 111.7214 111.7214
   111.8845 111.8845 112.3495 112.3495 112.8284 112.8284 112.8990 112.8990
   113.0130 113.0130 113.7391 113.7391 114.3128 114.3128 114.7420 114.7420
   115.0850 115.0850 115.3327 115.3327 115.4176 115.4176 115.9315 115.9315
   116.1166 116.1166 116.8801 116.8801 116.9919 116.9919 117.1808 117.1808
   117.6329 117.6329 117.8361 117.8361 118.3080 118.3080 118.4591 118.4591
   120.0074 120.0074 120.6568 120.6568 120.9114 120.9114 120.9973 120.9973
   121.4984 121.4984 122.0612 122.0612 122.1070 122.1070 122.1874 122.1874
   122.5081 122.5081 123.5670 123.5670 124.0720 124.0720 124.3133 124.3133
   124.4899 124.4899 124.7689 124.7689 125.1704 125.1704 125.4543 125.4543
   126.0256 126.0256 126.8866 126.8866 126.9611 126.9611 127.0965 127.0965
   127.5561 127.5561 127.8481 127.8481 128.2760 128.2760 129.2213 129.2213
   129.3032 129.3032 129.6291 129.6291 129.9287 129.9287 129.9353 129.9353
   130.1114 130.1114 130.9918 130.9918 131.6100 131.6100 131.9179 131.9179
   132.0650 132.0650 132.5797 132.5797 132.9615 132.9615 133.1689 133.1689
   133.7014 133.7014 134.4497 134.4497 134.7740 134.7740 135.3128 135.3128
   135.3391 135.3391 135.3883 135.3883 135.9801 135.9801 136.6352 136.6352
   137.0210 137.0210 137.2772 137.2772 137.2937 137.2937 137.6534 137.6534
   138.2771 138.2771 139.0624 139.0624

          k = 0.0000 0.8571 0.0000 (  7111 PWs)   bands (ev):

   -39.4672 -39.4672 -39.4672 -39.4672 -38.5733 -38.5733 -38.5733 -38.5733
   -38.5726 -38.5726  -9.9641  -9.9641  -9.9538  -9.9538  -7.4443  -7.4443
    -7.3896  -7.3896  -7.3586  -7.3586  -3.7948  -3.7948   0.8874   0.8874
     4.0721   4.0721   5.1447   5.1447   5.6118   5.6118  12.1910  12.1910
    12.2504  12.2504  13.5361  13.5361  13.8760  13.8760  18.9447  18.9447
    19.0015  19.0015  20.3377  20.3377  20.6209  20.6209  20.6618  20.6618
    21.9709  21.9709  22.3509  22.3509  22.6249  22.6249  23.0907  23.0907
    24.4624  24.4624  26.1323  26.1323  26.3315  26.3315  28.4176  28.4176
    29.8402  29.8402  29.9976  29.9976  30.3665  30.3665  32.0810  32.0810
    34.1089  34.1089  34.7004  34.7004  34.8885  34.8885  35.8050  35.8050
    36.5423  36.5423  36.8008  36.8008  37.2838  37.2838  37.5386  37.5386
    37.9720  37.9720  38.0422  38.0422  38.7343  38.7343  40.3223  40.3223
    41.6349  41.6349  41.7489  41.7489  43.4221  43.4221  43.6378  43.6378
    44.0859  44.0859  46.2270  46.2270  46.7459  46.7459  47.6964  47.6964
    48.0281  48.0281  48.2013  48.2013  49.8743  49.8743  51.0785  51.0785
    51.3025  51.3025  51.5281  51.5281  52.2436  52.2436  52.3762  52.3762
    52.7089  52.7089  54.0207  54.0207  54.2215  54.2215  54.7511  54.7511
    54.8713  54.8713  55.6365  55.6365  55.8730  55.8730  55.9796  55.9796
    56.2947  56.2947  58.2835  58.2835  58.3690  58.3690  58.8506  58.8506
    59.3304  59.3304  59.5953  59.5953  61.4431  61.4431  61.5169  61.5169
    62.3990  62.3990  62.5505  62.5505  62.6690  62.6690  63.4963  63.4963
    63.8390  63.8390  65.3793  65.3793  65.4268  65.4268  65.8923  65.8923
    66.0800  66.0800  66.7741  66.7741  67.5131  67.5131  67.9573  67.9573
    68.1151  68.1151  68.2481  68.2481  68.6454  68.6454  68.7796  68.7796
    68.8985  68.8985  70.6932  70.6932  71.0352  71.0352  71.1441  71.1441
    73.1181  73.1181  73.6560  73.6560  73.7391  73.7391  75.8547  75.8547
    76.8001  76.8001  76.8368  76.8368  78.4296  78.4296  78.4767  78.4767
    78.9408  78.9408  78.9540  78.9540  79.0216  79.0216  80.2212  80.2212
    80.2675  80.2675  80.7092  80.7092  80.7158  80.7158  80.8432  80.8432
    80.8741  80.8741  81.1438  81.1438  82.0246  82.0246  82.4662  82.4662
    82.4966  82.4966  83.4940  83.4940  83.5416  83.5416  84.2559  84.2559
    84.9021  84.9021  85.4596  85.4596  85.5537  85.5537  86.0566  86.0566
    87.3523  87.3523  87.4157  87.4157  87.9866  87.9866  88.8119  88.8119
    89.7250  89.7250  89.8566  89.8566  90.6307  90.6307  91.5738  91.5738
    93.4436  93.4436  94.3294  94.3294  94.4047  94.4047  94.5751  94.5751
    95.5490  95.5490  95.8498  95.8498  95.9003  95.9003  96.6738  96.6738
    96.6901  96.6901  97.0121  97.0121  97.4666  97.4666  97.5985  97.5985
    97.6344  97.6344  97.7266  97.7266  99.4003  99.4003  99.9326  99.9326
   100.0932 100.0932 100.2912 100.2912 100.9960 100.9960 101.9225 101.9225
   102.3503 102.3503 102.6997 102.6997 102.8921 102.8921 102.9928 102.9928
   103.5548 103.5548 103.5769 103.5769 104.1124 104.1124 104.3778 104.3778
   104.5499 104.5499 104.7542 104.7542 105.2971 105.2971 105.6592 105.6592
   105.7100 105.7100 106.0783 106.0783 106.6202 106.6202 106.6432 106.6432
   107.6251 107.6251 107.8433 107.8433 107.9672 107.9672 108.8945 108.8945
   109.3120 109.3120 110.0238 110.0238 110.0617 110.0617 110.7452 110.7452
   110.8034 110.8034 111.6042 111.6042 112.0628 112.0628 112.5608 112.5608
   112.8203 112.8203 112.8821 112.8821 113.1617 113.1617 113.1742 113.1742
   113.4924 113.4924 113.5174 113.5174 114.3578 114.3578 115.4030 115.4030
   115.4139 115.4139 115.7252 115.7252 115.7273 115.7273 116.2895 116.2895
   116.6547 116.6547 116.8204 116.8204 116.8247 116.8247 117.0650 117.0650
   117.1450 117.1450 117.5844 117.5844 118.1064 118.1064 119.4470 119.4470
   120.0367 120.0367 120.0820 120.0820 120.4206 120.4206 120.5571 120.5571
   121.4608 121.4608 121.7343 121.7343 122.9228 122.9228 123.5342 123.5342
[...]
    61.5036  61.5036  61.8069  61.8069  63.0093  63.0093  63.2034  63.2034
    63.4999  63.4999  65.1069  65.1069  65.5140  65.5140  65.8706  65.8706
    66.2814  66.2814  67.2707  67.2707  68.1550  68.1550  68.2730  68.2730
    69.4298  69.4298  69.8013  69.8013  70.7655  70.7655  70.9497  70.9497
    71.5771  71.5771  72.5404  72.5404  73.0421  73.0421  73.6292  73.6292
    73.8531  73.8531  74.5674  74.5674  75.0722  75.0722  75.7545  75.7545
    76.1850  76.1850  76.9069  76.9069  77.3044  77.3044  77.4661  77.4661
    78.1059  78.1059  78.4724  78.4724  79.0869  79.0869  79.3899  79.3899
    79.8367  79.8367  80.6022  80.6022  80.7642  80.7642  80.8755  80.8755
    81.4460  81.4460  82.2931  82.2931  83.0051  83.0051  83.4598  83.4598
    83.7803  83.7803  84.2279  84.2279  84.3946  84.3946  84.8476  84.8476
    85.5081  85.5081  86.0338  86.0338  86.1596  86.1596  86.4692  86.4692
    86.9756  86.9756  87.3670  87.3670  88.1972  88.1972  88.2423  88.2423
    88.8527  88.8527  89.0181  89.0181  89.1754  89.1754  90.2142  90.2142
    90.6114  90.6114  90.9837  90.9837  91.2628  91.2628  91.3209  91.3209
    92.0167  92.0167  92.2382  92.2382  94.1077  94.1077  94.5249  94.5249
    94.6108  94.6108  95.2185  95.2185  95.5309  95.5309  96.4487  96.4487
    96.6480  96.6480  96.7233  96.7233  97.1982  97.1982  97.6727  97.6727
    98.6114  98.6114  99.1875  99.1875  99.6352  99.6352 100.1644 100.1644
   100.4650 100.4650 101.7040 101.7040 102.0891 102.0891 102.6215 102.6215
   103.1443 103.1443 103.6813 103.6813 103.8712 103.8712 104.3931 104.3931
   105.6799 105.6799 106.0560 106.0560 106.6014 106.6014 106.9795 106.9795
   107.0957 107.0957 107.1980 107.1980 107.2497 107.2497 108.0370 108.0370
   108.3973 108.3973 109.1695 109.1695 109.2911 109.2911 109.7269 109.7269
   110.0968 110.0968 110.8631 110.8631 111.0262 111.0262 111.4629 111.4629
   111.5059 111.5059 111.9545 111.9545 112.2238 112.2238 113.2158 113.2158
   113.4479 113.4479 113.5112 113.5112 113.8002 113.8002 114.4350 114.4350
   114.8028 114.8028 115.3742 115.3742 115.4910 115.4910 115.9059 115.9059
   115.9690 115.9690 116.5431 116.5431 117.4007 117.4007 117.7641 117.7641
   118.3215 118.3215 119.0637 119.0637 119.2840 119.2840 119.4639 119.4639
   120.0063 120.0063 120.0802 120.0802 120.3837 120.3837 120.6271 120.6271
   121.1080 121.1080 121.3673 121.3673 121.7651 121.7651 122.2456 122.2456
   122.4195 122.4195 122.6688 122.6688 122.8416 122.8416 123.5295 123.5295
   123.7532 123.7532 125.0069 125.0069 125.1911 125.1911 125.6663 125.6663
   126.1237 126.1237 126.5707 126.5707 126.6884 126.6884 126.9958 126.9958
   127.3890 127.3890 127.9596 127.9596 128.4858 128.4858 129.0577 129.0577
   129.5613 129.5613 129.7211 129.7211 130.3924 130.3924 130.7623 130.7623
   131.3386 131.3386 131.9929 131.9929 132.2261 132.2261 132.3897 132.3897
   132.8361 132.8361 133.2687 133.2687 134.1427 134.1427 134.7874 134.7874
   135.4929 135.4929 135.8644 135.8644 135.9933 135.9933 136.3974 136.3974
   136.6646 136.6646 136.6981 136.6981 137.0835 137.0835 137.3957 137.3957
   137.5605 137.5605 137.7340 137.7340 138.4772 138.4772 138.8803 138.8803
   139.5764 139.5765 139.7816 139.7817

          k = 0.5714-0.2857 0.8571 (  7117 PWs)   bands (ev):

   -39.4672 -39.4672 -39.4672 -39.4672 -38.5733 -38.5733 -38.5733 -38.5733
   -38.5726 -38.5726  -9.9605  -9.9605  -9.9537  -9.9537  -7.4169  -7.4169
    -7.3845  -7.3845  -7.3723  -7.3723  -3.8703  -3.8703   0.2249   0.2249
     5.0428   5.0428   5.4731   5.4731   7.3185   7.3185   9.5802   9.5802
    11.6159  11.6159  12.4843  12.4843  15.1587  15.1587  16.8116  16.8116
    18.5293  18.5293  19.4203  19.4203  20.4689  20.4689  21.5827  21.5827
    22.9445  22.9445  23.8026  23.8026  24.3006  24.3006  25.2077  25.2077
    25.6212  25.6212  26.9673  26.9673  27.4778  27.4778  28.3773  28.3773
    28.7225  28.7225  29.0610  29.0610  30.0903  30.0903  30.7773  30.7773
    31.1159  31.1159  32.4470  32.4470  33.6703  33.6703  34.3555  34.3555
    35.7467  35.7467  36.2764  36.2764  37.7929  37.7929  39.1777  39.1777
    39.5194  39.5194  39.8081  39.8081  40.4803  40.4803  41.3730  41.3730
    42.5573  42.5573  42.8226  42.8226  43.4973  43.4973  44.0778  44.0778
    45.4958  45.4958  45.8140  45.8140  45.9995  45.9995  47.1105  47.1105
    47.7724  47.7724  48.8699  48.8699  49.1590  49.1590  49.6139  49.6139
    49.9374  49.9374  50.3789  50.3789  51.1716  51.1716  51.9163  51.9163
    52.1917  52.1917  52.2647  52.2647  53.5273  53.5273  55.1714  55.1714
    55.5445  55.5445  55.8413  55.8413  56.4759  56.4759  56.8172  56.8172
    56.9804  56.9804  58.0144  58.0144  58.4224  58.4224  58.7363  58.7363
    59.8356  59.8356  60.4760  60.4760  60.9502  60.9502  61.5192  61.5192
    61.7729  61.7729  62.1615  62.1615  63.0137  63.0137  63.5280  63.5280
    64.0402  64.0402  64.6024  64.6024  64.8372  64.8372  65.7920  65.7920
    66.1960  66.1960  67.0492  67.0492  67.3006  67.3006  67.7965  67.7965
    68.4424  68.4424  68.9251  68.9251  69.6781  69.6781  70.3541  70.3541
    71.2525  71.2525  71.7768  71.7768  72.0405  72.0405  72.5170  72.5170
    72.8615  72.8615  73.2480  73.2480  73.6773  73.6773  74.3096  74.3096
    75.1943  75.1943  75.5877  75.5877  76.0644  76.0644  76.7097  76.7097
    77.3753  77.3753  78.3216  78.3216  79.2355  79.2355  79.4475  79.4475
    80.0592  80.0592  80.6447  80.6447  81.2244  81.2244  82.0486  82.0486
    82.2297  82.2297  82.6477  82.6477  83.1470  83.1470  83.3005  83.3005
    83.3599  83.3599  84.7766  84.7766  84.9492  84.9492  85.3559  85.3559
    85.6064  85.6064  86.0434  86.0434  86.8585  86.8585  87.4460  87.4460
    88.6073  88.6073  89.0044  89.0044  89.1098  89.1098  89.4169  89.4169
    89.8242  89.8242  90.4801  90.4801  91.0747  91.0747  91.6042  91.6042
    91.7993  91.7993  92.5085  92.5085  93.1534  93.1534  93.3741  93.3741
    93.5013  93.5013  94.1315  94.1315  94.8283  94.8283  95.1804  95.1804
    95.4146  95.4146  95.7434  95.7434  95.9655  95.9655  96.9663  96.9663
    97.1194  97.1194  97.2631  97.2631  98.2974  98.2974  98.5029  98.5029
    98.9098  98.9098  99.4511  99.4511  99.7768  99.7768 100.5866 100.5866
   100.8308 100.8308 101.2511 101.2511 101.3931 101.3931 102.3761 102.3761
   103.0328 103.0328 103.1726 103.1726 103.4679 103.4679 103.6376 103.6376
   104.4797 104.4797 104.6588 104.6588 104.9489 104.9489 105.2051 105.2051
   105.3111 105.3111 106.1629 106.1629 106.4363 106.4363 106.9657 106.9657
   107.2461 107.2461 107.7381 107.7381 108.6800 108.6800 109.2455 109.2455
   110.1366 110.1366 110.2860 110.2860 110.6387 110.6387 110.7842 110.7842
   111.1344 111.1344 111.9728 111.9728 112.2238 112.2238 112.4617 112.4617
   112.6833 112.6833 113.1792 113.1792 113.5252 113.5252 114.2170 114.2170
   114.4897 114.4897 115.0085 115.0085 115.3640 115.3640 115.7193 115.7193
   115.9994 115.9994 116.9122 116.9122 117.0941 117.0941 117.3991 117.3991
   117.8212 117.8212 118.2464 118.2464 118.8146 118.8146 119.0540 119.0540
   119.3164 119.3164 119.5700 119.5700 120.0766 120.0766 120.4273 120.4273
   120.8837 120.8837 121.3854 121.3854 121.7829 121.7829 122.3647 122.3647
   122.6913 122.6913 123.2931 123.2931 123.8122 123.8122 124.0263 124.0263
   124.5415 124.5415 124.9102 124.9102 125.5159 125.5159 125.8952 125.8952
   126.0337 126.0337 126.6187 126.6187 127.0366 127.0366 127.4301 127.4301
   127.5908 127.5908 127.8937 127.8937 128.0258 128.0258 128.6914 128.6914
   129.0297 129.0297 129.4395 129.4395 129.7740 129.7740 130.2160 130.2160
   130.7500 130.7500 131.0083 131.0083 131.2584 131.2584 131.7431 131.7431
   132.4935 132.4935 133.0079 133.0079 133.3673 133.3673 133.7803 133.7803
   134.4127 134.4127 134.7264 134.7264 135.1009 135.1009 135.4594 135.4594
   135.7702 135.7702 136.1032 136.1032 136.1507 136.1507 136.5079 136.5079
   136.9968 136.9968 137.2109 137.2109 138.1303 138.1303 138.3313 138.3313
   138.9183 138.9184 139.1078 139.1082

          k = 0.7143-0.1429 1.0000 (  7108 PWs)   bands (ev):

   -39.4672 -39.4672 -39.4672 -39.4672 -38.5733 -38.5733 -38.5733 -38.5733
   -38.5726 -38.5726  -9.9625  -9.9625  -9.9539  -9.9539  -7.4348  -7.4348
    -7.3871  -7.3871  -7.3645  -7.3645  -3.7701  -3.7701   0.5768   0.5768
     4.2849   4.2849   4.9866   4.9866   6.4707   6.4707  10.9472  10.9472
    12.5329  12.5329  13.0518  13.0518  14.2290  14.2290  17.7997  17.7997
    19.1910  19.1910  20.2539  20.2539  20.4649  20.4649  21.3951  21.3951
    22.0897  22.0897  22.3789  22.3789  23.4939  23.4939  25.1175  25.1175
    25.3061  25.3061  26.0124  26.0124  27.4944  27.4944  27.7096  27.7096
    28.0483  28.0483  30.0207  30.0207  30.6885  30.6885  31.3435  31.3435
    32.2180  32.2180  32.2946  32.2946  33.3182  33.3182  34.5360  34.5360
    35.9776  35.9776  36.5744  36.5744  37.7898  37.7898  38.3630  38.3630
    39.5400  39.5400  40.1307  40.1307  40.8343  40.8343  41.2496  41.2496
    41.8896  41.8896  43.0087  43.0087  43.7375  43.7375  44.4959  44.4959
    45.2929  45.2929  45.4217  45.4217  46.2761  46.2761  46.4585  46.4585
    47.5614  47.5614  48.1734  48.1734  48.7591  48.7591  49.9799  49.9799
    50.2044  50.2044  50.8413  50.8413  52.2147  52.2147  52.9006  52.9006
    53.0246  53.0246  53.6406  53.6406  54.0022  54.0022  54.0743  54.0743
    54.6628  54.6628  55.7920  55.7920  56.0845  56.0845  57.0376  57.0376
    57.2372  57.2372  58.6933  58.6933  58.7696  58.7696  59.3532  59.3532
    59.8295  59.8295  60.0511  60.0511  60.5032  60.5032  61.3916  61.3916
    61.8551  61.8551  62.0774  62.0774  62.8545  62.8545  63.1819  63.1819
    63.7616  63.7616  64.7838  64.7838  65.2524  65.2524  65.4570  65.4570
    65.9390  65.9390  66.5487  66.5487  66.7477  66.7477  67.9463  67.9463
    68.4870  68.4870  69.2224  69.2224  70.0763  70.0763  70.3115  70.3115
    70.8945  70.8945  71.2686  71.2686  72.3284  72.3284  72.6295  72.6295
    72.8138  72.8138  73.2920  73.2920  73.7509  73.7509  73.9402  73.9402
    74.4439  74.4439  75.1769  75.1769  75.2680  75.2680  75.3577  75.3577
    76.9561  76.9561  77.3798  77.3798  77.7627  77.7627  77.8016  77.8016
    79.3330  79.3330  79.9513  79.9513  80.9426  80.9426  81.5535  81.5535
    82.0750  82.0750  83.1276  83.1276  83.6591  83.6591  84.0672  84.0672
    84.5080  84.5080  85.2905  85.2905  85.5688  85.5688  85.6183  85.6183
    86.1915  86.1915  86.2331  86.2331  87.3920  87.3920  87.5308  87.5308
    87.9644  87.9644  89.4965  89.4965  89.6024  89.6024  89.8853  89.8853
    90.5026  90.5026  90.7442  90.7442  91.0300  91.0300  91.5320  91.5320
    91.6131  91.6131  92.0233  92.0233  92.2926  92.2926  94.3267  94.3267
    94.4110  94.4110  95.1823  95.1823  95.4624  95.4624  96.1932  96.1932
    96.2563  96.2563  96.9367  96.9367  97.5710  97.5710  97.6041  97.6041
    98.0307  98.0307  98.1898  98.1898  98.2153  98.2153  98.8379  98.8379
    99.4956  99.4956  99.7550  99.7550  99.9068  99.9068 100.5264 100.5264
   101.3652 101.3652 101.8704 101.8704 102.3048 102.3048 102.3876 102.3876
   102.6516 102.6516 102.9925 102.9925 103.6573 103.6573 104.1839 104.1839
   104.6319 104.6319 104.8852 104.8852 105.4319 105.4319 106.0950 106.0950
   106.1430 106.1430 106.1530 106.1530 106.7712 106.7712 106.8029 106.8029
   107.5185 107.5185 107.7768 107.7768 108.1226 108.1226 108.7080 108.7080
   109.1077 109.1077 109.2577 109.2577 110.0218 110.0218 110.7482 110.7482
   110.8205 110.8205 111.6801 111.6801 112.0970 112.0970 112.5693 112.5693
   112.6525 112.6525 113.5626 113.5626 113.5832 113.5832 113.8178 113.8178
   114.0094 114.0094 114.5093 114.5093 114.6304 114.6304 114.9020 114.9020
   115.4323 115.4323 116.0204 116.0204 116.2542 116.2542 116.6853 116.6853
   116.8325 116.8325 116.9814 116.9814 117.2776 117.2776 117.4738 117.4738
   118.0294 118.0294 118.6423 118.6423 119.2895 119.2895 119.5256 119.5256
   119.8245 119.8245 120.1140 120.1140 120.6468 120.6468 121.3268 121.3268
   121.7188 121.7188 122.3219 122.3219 122.9787 122.9787 123.2232 123.2232
   123.4015 123.4015 124.2062 124.2062 124.5332 124.5332 125.1605 125.1605
   125.4197 125.4197 125.6896 125.6896 126.6774 126.6774 127.2265 127.2265
   127.5541 127.5541 128.1300 128.1300 128.4700 128.4700 128.6647 128.6647
   129.7802 129.7802 130.2273 130.2273 130.3753 130.3753 131.2787 131.2787
   131.5958 131.5958 132.3554 132.3554 132.6574 132.6574 133.2222 133.2222
   133.3930 133.3930 133.7634 133.7634 133.8973 133.8973 134.1649 134.1649
   134.7186 134.7186 134.7851 134.7851 135.1970 135.1970 135.8663 135.8663
   135.9754 135.9754 136.0915 136.0915 136.5853 136.5853 137.0292 137.0292
   137.3335 137.3335 137.9301 137.9301 138.1311 138.1311 138.6492 138.6492
   139.2138 139.2139 139.7410 139.7422

          k = 0.5714 0.0000 0.8571 (  7127 PWs)   bands (ev):

   -39.4672 -39.4672 -39.4672 -39.4672 -38.5733 -38.5733 -38.5733 -38.5733
   -38.5726 -38.5726  -9.9616  -9.9616  -9.9539  -9.9539  -7.4298  -7.4298
    -7.3842  -7.3842  -7.3695  -7.3695  -3.7320  -3.7320   0.4117   0.4117
     4.2961   4.2961   4.9097   4.9097   7.2032   7.2032   9.9777   9.9777
    12.4832  12.4832  13.1072  13.1072  15.0443  15.0443  16.4075  16.4075
    19.6517  19.6517  19.8750  19.8750  20.3070  20.3070  22.0783  22.0783
    22.5737  22.5737  22.9159  22.9159  24.8785  24.8785  25.0542  25.0542
    25.1917  25.1917  26.1092  26.1092  27.6153  27.6153  27.9067  27.9067
    28.5113  28.5113  29.2932  29.2932  30.0287  30.0287  30.1373  30.1373
    30.9953  30.9953  32.0472  32.0472  32.7610  32.7610  33.1926  33.1926
    36.0387  36.0387  36.2132  36.2132  38.5040  38.5040  39.6215  39.6215
    39.8383  39.8383  40.6923  40.6923  40.9865  40.9865  42.5448  42.5448
    43.0655  43.0655  43.4183  43.4183  43.8194  43.8194  44.0090  44.0090
    45.5017  45.5017  45.7052  45.7052  45.8638  45.8638  46.6791  46.6791
    47.3345  47.3345  47.9123  47.9123  48.7343  48.7343  49.4014  49.4014
    50.1299  50.1299  50.9397  50.9397  51.8971  51.8971  52.2791  52.2791
    52.3515  52.3515  53.7802  53.7802  53.9113  53.9113  54.4578  54.4578
    54.9679  54.9679  55.0745  55.0745  56.0638  56.0638  56.9773  56.9773
    57.0363  57.0363  57.3884  57.3884  58.2705  58.2705  59.0849  59.0849
    60.4275  60.4275  60.9042  60.9042  61.0346  61.0346  61.6188  61.6188
    62.1296  62.1296  62.4777  62.4777  63.0471  63.0471  64.2222  64.2222
    64.6666  64.6666  64.8269  64.8269  65.5565  65.5565  66.2058  66.2058
    66.4658  66.4658  66.5988  66.5988  66.8228  66.8228  67.8987  67.8987
    68.1116  68.1116  68.6894  68.6894  69.6039  69.6039  70.0961  70.0961
    70.2421  70.2421  70.7732  70.7732  71.0827  71.0827  71.2749  71.2749
    72.0551  72.0551  72.5857  72.5857  73.5771  73.5771  74.1700  74.1700
    74.2312  74.2312  74.8905  74.8905  75.0812  75.0812  75.3671  75.3671
    76.9162  76.9162  77.0683  77.0683  77.6928  77.6928  78.3114  78.3114
    79.6467  79.6467  79.7471  79.7471  80.9197  80.9197  81.2481  81.2481
    82.8347  82.8347  82.9596  82.9596  83.1884  83.1884  83.8484  83.8484
    84.3487  84.3487  85.4772  85.4772  85.5130  85.5130  85.6204  85.6204
    86.7458  86.7458  87.7105  87.7105  88.8873  88.8873  89.0869  89.0869
    89.2046  89.2046  89.3049  89.3049  89.6112  89.6112  90.1026  90.1026
    91.1395  91.1395  91.4418  91.4418  91.5765  91.5765  91.8717  91.8717
    92.6351  92.6351  93.2888  93.2888  93.3164  93.3164  94.0056  94.0056
    94.2441  94.2441  94.5437  94.5437  95.6078  95.6078  95.7551  95.7551
    96.4523  96.4523  96.5487  96.5487  97.1073  97.1073  97.2011  97.2011
    97.5413  97.5413  97.9699  97.9699  98.1668  98.1668  98.7013  98.7013
    99.1264  99.1264  99.3989  99.3989  99.5148  99.5148 100.0045 100.0045
   100.1522 100.1522 100.8498 100.8498 101.2208 101.2208 101.5621 101.5621
   102.1022 102.1022 102.5044 102.5044 103.6910 103.6910 104.0524 104.0524
   104.0952 104.0952 104.6643 104.6643 105.0140 105.0140 105.3996 105.3996
   105.6350 105.6350 106.8477 106.8477 107.0503 107.0503 107.1709 107.1709
   107.5203 107.5203 107.9536 107.9536 108.1548 108.1548 108.7796 108.7796
   109.1342 109.1342 109.7999 109.7999 110.1813 110.1813 110.5923 110.5923
   110.6237 110.6237 111.2593 111.2593 111.5982 111.5982 111.8516 111.8516
   111.9892 111.9892 112.8905 112.8905 112.9723 112.9723 113.1831 113.1831
   113.3819 113.3819 114.2701 114.2701 114.9773 114.9773 115.3877 115.3877
   115.7780 115.7780 116.3301 116.3301 116.5039 116.5039 117.0691 117.0691
   117.8214 117.8214 118.1718 118.1718 118.4359 118.4359 118.8326 118.8326
   119.2775 119.2775 119.6647 119.6647 119.8938 119.8938 120.2963 120.2963
   120.4268 120.4268 120.8009 120.8009 120.9073 120.9073 121.4698 121.4698
   121.6859 121.6859 122.2027 122.2027 122.3790 122.3790 123.2493 123.2493
   123.5761 123.5761 124.1664 124.1664 124.9151 124.9151 125.3301 125.3301
   126.0786 126.0786 126.4797 126.4797 127.2536 127.2536 127.4061 127.4061
   127.4995 127.4995 128.0310 128.0310 128.1741 128.1741 128.5659 128.5659
   129.5301 129.5301 129.7102 129.7102 129.8736 129.8736 130.7427 130.7427
   131.3261 131.3261 131.6500 131.6500 131.9663 131.9663 132.2909 132.2909
   132.7945 132.7945 133.4337 133.4337 133.6551 133.6551 134.1875 134.1875
   134.3460 134.3460 134.8053 134.8053 135.3059 135.3059 135.3693 135.3693
   135.6868 135.6868 136.4479 136.4479 136.9933 136.9933 137.0486 137.0486
   137.3906 137.3906 137.7616 137.7616 138.5419 138.5419 138.9531 138.9531
   139.0962 139.0962 139.2777 139.2778

     highest occupied, lowest unoccupied level (ev):     7.8192    8.4001

!    total energy              =    -382.97222246 Ry
     estimated scf accuracy    <          8.0E-10 Ry

     The total energy is the sum of the following terms:
     one-electron contribution =    -183.52708840 Ry
     hartree contribution      =     103.72688377 Ry
     xc contribution           =     -88.09327543 Ry
     ewald contribution        =    -215.07874240 Ry

     convergence has been achieved in   7 iterations

     Writing all to output data dir ./outdir/PbSe.save/
 
     init_run     :     16.58s CPU     17.56s WALL (       1 calls)
     electrons    :    697.44s CPU    721.51s WALL (       1 calls)

     Called by init_run:
     wfcinit      :     16.39s CPU     17.36s WALL (       1 calls)
     potinit      :      0.02s CPU      0.02s WALL (       1 calls)
     hinit0       :      0.12s CPU      0.12s WALL (       1 calls)

     Called by electrons:
     c_bands      :    656.57s CPU    678.16s WALL (       8 calls)
     sum_band     :     40.68s CPU     43.17s WALL (       8 calls)
     v_of_rho     :      0.08s CPU      0.08s WALL (       8 calls)
     mix_rho      :      0.09s CPU      0.09s WALL (       8 calls)

     Called by c_bands:
     init_us_2    :      0.23s CPU      0.23s WALL (     340 calls)
     init_us_2:cp :      0.23s CPU      0.23s WALL (     340 calls)
     cegterg      :    650.84s CPU    672.31s WALL (     160 calls)

     Called by *egterg:
     cdiaghg      :    291.52s CPU    298.84s WALL (     587 calls)
     h_psi        :    166.31s CPU    179.35s WALL (     627 calls)
     g_psi        :      1.71s CPU      1.71s WALL (     447 calls)

     Called by h_psi:
     h_psi:calbec :      5.34s CPU      5.50s WALL (     627 calls)
     vloc_psi     :    151.22s CPU    162.31s WALL (     627 calls)
     add_vuspsi   :      6.60s CPU      6.62s WALL (     627 calls)

     General routines
     calbec       :      5.33s CPU      5.50s WALL (     627 calls)
     fft          :      0.12s CPU      0.12s WALL (     102 calls)
     ffts         :      0.01s CPU      0.01s WALL (      32 calls)
     fftw         :    165.03s CPU    176.91s WALL (  945304 calls)
 
     Parallel routines
 
     PWSCF        :  11m55.02s CPU  12m21.19s WALL

 
   This run was terminated on:  15:54:44  13Dec2022            

=------------------------------------------------------------------------------=
   JOB DONE.
=------------------------------------------------------------------------------=
