
     Program PWSCF v.7.1 starts on 16Oct2022 at 16:54:28 
        Git branch: all_p_qe-7.1
        Last git commit: 64b50ae7008d8f92f2d90b8cd0971bd852daf481
        Last git commit date: Tue Sep 27 11:29:25 2022 -0300
        Last git commit subject: fix: write p instead of |p|^2

     This program is part of the open-source Quantum ESPRESSO suite
     for quantum simulation of materials; please cite
         "P. Giannozzi et al., J. Phys.:Condens. Matter 21 395502 (2009);
         "P. Giannozzi et al., J. Phys.:Condens. Matter 29 465901 (2017);
         "P. Giannozzi et al., J. Chem. Phys. 152 154105 (2020);
          URL http://www.quantum-espresso.org", 
     in publications or presentations arising from this work. More details at
     http://www.quantum-espresso.org/quote

     Parallel version (MPI & OpenMP), running on       4 processor cores
     Number of MPI processes:                 1
     Threads/MPI process:                     4

     MPI processes distributed on     1 nodes
     11423 MiB available memory on the printing compute node when the environment starts

     Reading input from nscf.in

     Current dimensions of program PWSCF are:
     Max number of different atomic species (ntypx) = 10
     Max number of k-points (npk) =  40000
     Max angular momentum in pseudopotentials (lmaxx) =  4

     Atomic positions and unit cell read from directory:
     ./outdir/GaBiCl2.save/
     Atomic positions from file used, from input discarded


     Subspace diagonalization in iterative solution of the eigenvalue problem:
     a serial algorithm will be used


     G-vector sticks info
     --------------------
     sticks:   dense  smooth     PW     G-vecs:    dense   smooth      PW
     Sum        2791    2233    613               509739   364973   52099

     Using Slab Decomposition



     bravais-lattice index     =            4
     lattice parameter (alat)  =       9.0139  a.u.
     unit-cell volume          =    2701.3069 (a.u.)^3
     number of atoms/cell      =            4
     number of atomic types    =            3
     number of electrons       =        42.00
     number of Kohn-Sham states=          500
     kinetic-energy cutoff     =     100.0000  Ry
     charge density cutoff     =     500.0000  Ry
     Exchange-correlation= PBE
                           (   1   4   3   4   0   0   0)
     Non magnetic calculation with spin-orbit


     celldm(1)=   9.013946  celldm(2)=   0.000000  celldm(3)=   4.258910
     celldm(4)=   0.000000  celldm(5)=   0.000000  celldm(6)=   0.000000

     crystal axes: (cart. coord. in units of alat)
               a(1) = (   1.000000   0.000000   0.000000 )  
               a(2) = (  -0.500000   0.866025   0.000000 )  
               a(3) = (   0.000000   0.000000   4.258910 )  

     reciprocal axes: (cart. coord. in units 2 pi/alat)
               b(1) = (  1.000000  0.577350 -0.000000 )  
               b(2) = (  0.000000  1.154701  0.000000 )  
               b(3) = (  0.000000 -0.000000  0.234802 )  


     PseudoPot. # 1 for Ga read from file:
     ../../pseudos/ONCVPSP/abinit/Ga_ONCV_PBE_fr.upf
     MD5 check sum: e9c22aa58ae81c6101e8ac1c888eeafc
     Pseudo is Norm-conserving + core correction, Zval = 13.0
     Generated using ONCVPSP code by D. R. Hamann
     Using radial grid of 1926 points, 10 beta functions with: 
                l(1) =   0
                l(2) =   0
                l(3) =   1
                l(4) =   1
                l(5) =   1
                l(6) =   1
                l(7) =   2
                l(8) =   2
                l(9) =   2
               l(10) =   2

     PseudoPot. # 2 for Bi read from file:
     ../../pseudos/ONCVPSP/abinit/Bi_ONCV_PBE_fr.upf
     MD5 check sum: 67fe3f209319bd312dc946f0524d3915
     Pseudo is Norm-conserving + core correction, Zval = 15.0
     Generated using ONCVPSP code by D. R. Hamann
     Using radial grid of 1562 points, 10 beta functions with: 
                l(1) =   0
                l(2) =   0
                l(3) =   1
                l(4) =   1
                l(5) =   1
                l(6) =   1
                l(7) =   2
                l(8) =   2
                l(9) =   2
               l(10) =   2

     PseudoPot. # 3 for Cl read from file:
     ../../pseudos/ONCVPSP/abinit/Cl_ONCV_PBE_fr.upf
     MD5 check sum: a15e3fbbeaab72d46083b17a69c4f9b2
     Pseudo is Norm-conserving + core correction, Zval =  7.0
     Generated using ONCVPSP code by D. R. Hamann
     Using radial grid of 1028 points, 10 beta functions with: 
                l(1) =   0
                l(2) =   0
                l(3) =   1
                l(4) =   1
                l(5) =   1
                l(6) =   1
                l(7) =   2
                l(8) =   2
                l(9) =   2
               l(10) =   2

     atomic species   valence    mass     pseudopotential
        Ga            13.00    69.72300     Ga( 1.00)
        Bi            15.00   208.98000     Bi( 1.00)
        Cl             7.00    35.45000     Cl( 1.00)

      6 Sym. Ops. (no inversion) found



   Cartesian axes

     site n.     atom                  positions (alat units)
         1           Ga  tau(   1) = (   0.5000000   0.2886751   2.1294549  )
         2           Bi  tau(   2) = (  -0.0000000   0.5773503   1.9896225  )
         3           Cl  tau(   3) = (   0.5000000   0.2886751   2.5894130  )
         4           Cl  tau(   4) = (  -0.0000000   0.5773503   1.4751571  )

     number of k points=    61
                       cart. coord. in units 2pi/alat
        k(    1) = (   0.5000000   0.2886751  -0.0000000), wk =   0.0163934
        k(    2) = (   0.4833333   0.2790526   0.0000000), wk =   0.0163934
        k(    3) = (   0.4666667   0.2694301   0.0000000), wk =   0.0163934
        k(    4) = (   0.4500000   0.2598076   0.0000000), wk =   0.0163934
        k(    5) = (   0.4333333   0.2501851   0.0000000), wk =   0.0163934
        k(    6) = (   0.4166667   0.2405626   0.0000000), wk =   0.0163934
        k(    7) = (   0.4000000   0.2309401   0.0000000), wk =   0.0163934
        k(    8) = (   0.3833333   0.2213176   0.0000000), wk =   0.0163934
        k(    9) = (   0.3666667   0.2116951   0.0000000), wk =   0.0163934
        k(   10) = (   0.3500000   0.2020726   0.0000000), wk =   0.0163934
        k(   11) = (   0.3333333   0.1924501   0.0000000), wk =   0.0163934
        k(   12) = (   0.3166667   0.1828276   0.0000000), wk =   0.0163934
        k(   13) = (   0.3000000   0.1732051   0.0000000), wk =   0.0163934
        k(   14) = (   0.2833333   0.1635826   0.0000000), wk =   0.0163934
        k(   15) = (   0.2666667   0.1539601   0.0000000), wk =   0.0163934
        k(   16) = (   0.2500000   0.1443376   0.0000000), wk =   0.0163934
        k(   17) = (   0.2333333   0.1347151   0.0000000), wk =   0.0163934
        k(   18) = (   0.2166667   0.1250926   0.0000000), wk =   0.0163934
        k(   19) = (   0.2000000   0.1154701   0.0000000), wk =   0.0163934
        k(   20) = (   0.1833333   0.1058475   0.0000000), wk =   0.0163934
        k(   21) = (   0.1666667   0.0962250   0.0000000), wk =   0.0163934
        k(   22) = (   0.1500000   0.0866025   0.0000000), wk =   0.0163934
        k(   23) = (   0.1333333   0.0769800   0.0000000), wk =   0.0163934
        k(   24) = (   0.1166667   0.0673575   0.0000000), wk =   0.0163934
        k(   25) = (   0.1000000   0.0577350   0.0000000), wk =   0.0163934
        k(   26) = (   0.0833333   0.0481125   0.0000000), wk =   0.0163934
        k(   27) = (   0.0666667   0.0384900   0.0000000), wk =   0.0163934
        k(   28) = (   0.0500000   0.0288675   0.0000000), wk =   0.0163934
        k(   29) = (   0.0333333   0.0192450   0.0000000), wk =   0.0163934
        k(   30) = (   0.0166667   0.0096225   0.0000000), wk =   0.0163934
        k(   31) = (   0.0000000   0.0000000   0.0000000), wk =   0.0163934
        k(   32) = (   0.0222222   0.0000000   0.0000000), wk =   0.0163934
        k(   33) = (   0.0444444   0.0000000   0.0000000), wk =   0.0163934
        k(   34) = (   0.0666667   0.0000000   0.0000000), wk =   0.0163934
        k(   35) = (   0.0888889   0.0000000   0.0000000), wk =   0.0163934
        k(   36) = (   0.1111111   0.0000000   0.0000000), wk =   0.0163934
        k(   37) = (   0.1333333   0.0000000   0.0000000), wk =   0.0163934
        k(   38) = (   0.1555556   0.0000000   0.0000000), wk =   0.0163934
        k(   39) = (   0.1777778   0.0000000   0.0000000), wk =   0.0163934
        k(   40) = (   0.2000000   0.0000000   0.0000000), wk =   0.0163934
        k(   41) = (   0.2222222   0.0000000   0.0000000), wk =   0.0163934
        k(   42) = (   0.2444444   0.0000000   0.0000000), wk =   0.0163934
        k(   43) = (   0.2666667   0.0000000   0.0000000), wk =   0.0163934
        k(   44) = (   0.2888889   0.0000000   0.0000000), wk =   0.0163934
        k(   45) = (   0.3111111   0.0000000   0.0000000), wk =   0.0163934
        k(   46) = (   0.3333333   0.0000000   0.0000000), wk =   0.0163934
        k(   47) = (   0.3555556   0.0000000   0.0000000), wk =   0.0163934
        k(   48) = (   0.3777778   0.0000000   0.0000000), wk =   0.0163934
        k(   49) = (   0.4000000   0.0000000   0.0000000), wk =   0.0163934
        k(   50) = (   0.4222222   0.0000000   0.0000000), wk =   0.0163934
        k(   51) = (   0.4444444   0.0000000   0.0000000), wk =   0.0163934
        k(   52) = (   0.4666667   0.0000000   0.0000000), wk =   0.0163934
        k(   53) = (   0.4888889   0.0000000   0.0000000), wk =   0.0163934
        k(   54) = (   0.5111111   0.0000000   0.0000000), wk =   0.0163934
        k(   55) = (   0.5333333   0.0000000   0.0000000), wk =   0.0163934
        k(   56) = (   0.5555556   0.0000000   0.0000000), wk =   0.0163934
        k(   57) = (   0.5777778   0.0000000   0.0000000), wk =   0.0163934
        k(   58) = (   0.6000000   0.0000000   0.0000000), wk =   0.0163934
        k(   59) = (   0.6222222   0.0000000   0.0000000), wk =   0.0163934
        k(   60) = (   0.6444444   0.0000000   0.0000000), wk =   0.0163934
        k(   61) = (   0.6666667   0.0000000   0.0000000), wk =   0.0163934

     Dense  grid:   509739 G-vectors     FFT dimensions: (  72,  72, 288)

     Smooth grid:   364973 G-vectors     FFT dimensions: (  60,  60, 250)

     Estimated max dynamical RAM per process >       3.95 GB

     The potential is recalculated from file :
     ./outdir/GaBiCl2.save/charge-density

     Starting wfcs are   52 randomized atomic wfcs +  448 random wfcs

     Band Structure Calculation
     Davidson diagonalization with overlap

     ethr =  2.38E-11,  avg # of iterations = 35.1

     total cpu time spent up to now is    24627.5 secs

     End of band structure calculation

          k = 0.5000 0.2887-0.0000 ( 45622 PWs)   bands (ev):

   -27.2769 -27.2769 -27.1993 -27.1993 -24.3304 -24.3304 -24.2484 -24.2484
   -24.2053 -24.2053 -18.4061 -18.4061 -18.0868 -18.0868 -17.8357 -17.8357
   -17.6670 -17.6670 -17.5962 -17.5962 -17.4994 -17.4994 -17.0241 -17.0241
   -13.1907 -13.1907  -9.1983  -9.1983  -6.8395  -6.8395  -6.1601  -6.1601
    -5.7532  -5.7532  -5.4217  -5.4217  -5.1709  -5.1709  -5.0051  -5.0051
    -3.8534  -3.8534  -1.8218  -1.8218  -0.4905  -0.4905   1.5254   1.5254
     3.2197   3.2197   3.6748   3.6748   4.1287   4.1287   4.5324   4.5324
     4.8330   4.8330   4.9917   4.9917   5.1753   5.1753   5.4575   5.4575
     5.8689   5.8689   5.9945   5.9945   6.1588   6.1588   6.3681   6.3681
     6.8519   6.8519   7.0017   7.0017   7.0417   7.0417   7.3684   7.3684
     7.5279   7.5279   8.0114   8.0114   8.4360   8.4360   8.6878   8.6878
     8.7480   8.7480   8.9748   8.9748   9.0987   9.0987   9.2268   9.2268
     9.5503   9.5503   9.7433   9.7433   9.7805   9.7805   9.8548   9.8548
    10.0988  10.0988  10.3243  10.3243  10.5733  10.5733  10.8513  10.8513
    10.8922  10.8922  10.9774  10.9774  11.5730  11.5730  11.6811  11.6811
    11.8738  11.8738  12.2621  12.2621  12.3599  12.3599  12.8066  12.8066
    13.1834  13.1834  13.3377  13.3377  13.3892  13.3892  13.5147  13.5147
    13.6177  13.6177  13.6959  13.6959  13.8928  13.8928  14.2723  14.2723
    14.7445  14.7445  15.0571  15.0571  15.3371  15.3371  15.5457  15.5457
    15.6382  15.6382  15.8487  15.8487  16.2973  16.2973  16.4580  16.4580
    16.5744  16.5744  16.7513  16.7513  16.9087  16.9087  17.0408  17.0408
    17.0823  17.0823  17.2327  17.2327  17.7335  17.7335  17.9403  17.9403
    18.1661  18.1661  18.3883  18.3883  18.5197  18.5197  18.5560  18.5560
    18.5773  18.5773  18.7253  18.7253  18.8136  18.8136  19.0274  19.0274
    19.0836  19.0836  19.2687  19.2687  19.3679  19.3679  19.3940  19.3940
    19.4886  19.4886  19.6740  19.6740  19.7276  19.7276  19.7912  19.7912
    19.9939  19.9939  20.2352  20.2352  20.3851  20.3851  20.4717  20.4717
    20.5591  20.5591  20.7260  20.7260  20.7587  20.7587  20.9888  20.9888
    21.1021  21.1021  21.2804  21.2804  21.3613  21.3613  21.3991  21.3991
    21.4996  21.4996  21.6771  21.6771  21.7288  21.7288  21.8514  21.8514
    22.0338  22.0338  22.1809  22.1809  22.3357  22.3357  22.6832  22.6832
    22.8822  22.8822  23.0201  23.0201  23.2572  23.2572  23.3137  23.3137
    23.4900  23.4900  23.5465  23.5465  23.6992  23.6992  23.8070  23.8070
    23.8653  23.8653  23.9927  23.9927  24.1683  24.1683  24.3910  24.3910
    24.5070  24.5070  24.5426  24.5426  24.6225  24.6225  24.7563  24.7563
    24.8569  24.8569  25.0691  25.0691  25.1959  25.1959  25.2676  25.2676
    25.3096  25.3096  25.3766  25.3766  25.7673  25.7673  25.8911  25.8911
    26.2732  26.2732  26.3304  26.3304  26.4708  26.4708  26.6149  26.6149
    26.8138  26.8138  26.8879  26.8879  26.9256  26.9256  27.0313  27.0313
    27.3348  27.3348  27.5566  27.5566  27.7028  27.7028  28.1817  28.1817
    28.2125  28.2125  28.2529  28.2529  28.3530  28.3530  28.5729  28.5729
    28.7256  28.7256  29.0344  29.0344  29.0646  29.0646  29.1023  29.1023
    29.3208  29.3208  29.3596  29.3596  29.4519  29.4519  29.5944  29.5944
    29.8309  29.8309  30.2374  30.2374  30.5387  30.5387  30.6690  30.6690
    30.8574  30.8574  30.9644  30.9644  31.0961  31.0961  31.1569  31.1569
    31.2946  31.2946  31.3624  31.3624  31.4077  31.4077  31.4501  31.4501
    31.6007  31.6007  31.7012  31.7012  31.8598  31.8598  31.8762  31.8762
    31.9717  31.9717  32.0944  32.0944  32.1802  32.1802  32.2940  32.2940
    32.3477  32.3477  32.3591  32.3591  32.4209  32.4209  32.5002  32.5002
    32.5445  32.5445  32.6958  32.6958  32.7696  32.7696  32.8804  32.8804
    33.0983  33.0983  33.1322  33.1322  33.3834  33.3834  33.4673  33.4673
    33.5796  33.5796  33.6629  33.6629  33.7249  33.7249  33.7528  33.7528
    33.8107  33.8107  33.8983  33.8983  34.2122  34.2122  34.3086  34.3086
    34.5011  34.5011  34.6064  34.6064  34.6800  34.6800  34.8310  34.8310
    34.8503  34.8503  34.9030  34.9030  35.0020  35.0020  35.1953  35.1953
    35.4438  35.4438  35.5216  35.5216  35.7431  35.7431  35.9037  35.9037
    35.9893  35.9893  36.3722  36.3722  36.3853  36.3853  36.4793  36.4793
    36.6017  36.6017  36.6734  36.6734  36.6992  36.6992  36.8663  36.8663
    37.3143  37.3143  37.5284  37.5284  37.5600  37.5600  37.6106  37.6106
    37.7619  37.7619  37.8265  37.8265  37.9034  37.9034  37.9909  37.9909
    38.0335  38.0335  38.1439  38.1439  38.2952  38.2952  38.3407  38.3407
    38.4730  38.4730  38.7730  38.7730  38.8821  38.8821  38.9377  38.9377
    39.0335  39.0335  39.1421  39.1421

          k = 0.4833 0.2791 0.0000 ( 45624 PWs)   bands (ev):

   -27.2769 -27.2769 -27.1993 -27.1993 -24.3305 -24.3304 -24.2484 -24.2484
   -24.2053 -24.2053 -18.4062 -18.4061 -18.0868 -18.0868 -17.8359 -17.8354
   -17.6672 -17.6668 -17.5962 -17.5961 -17.5000 -17.4992 -17.0243 -17.0242
   -13.1928 -13.1923  -9.1992  -9.1897  -6.8532  -6.8243  -6.1657  -6.1526
    -5.7525  -5.7521  -5.4219  -5.4203  -5.1709  -5.1705  -5.0050  -5.0030
    -3.8538  -3.8509  -1.8220  -1.8197  -0.4962  -0.4894   1.5154   1.5420
     3.2013   3.2195   3.6710   3.6736   4.0769   4.1047   4.5265   4.5314
     4.8249   4.8348   4.9454   4.9804   5.1914   5.2262   5.4629   5.4682
     5.8307   5.8702   5.9764   6.0139   6.1914   6.2014   6.3434   6.3551
     6.8303   6.8331   6.9588   6.9594   7.0788   7.0978   7.3908   7.3912
     7.5614   7.5781   8.0111   8.0123   8.4194   8.4253   8.6829   8.6847
     8.7565   8.7586   8.9685   8.9893   9.0916   9.1051   9.2132   9.2505
     9.4936   9.4954   9.7533   9.7591   9.8182   9.8212   9.8589   9.8597
    10.1054  10.1056  10.3393  10.3395  10.5720  10.5722  10.8477  10.8494
    10.8933  10.8980  10.9841  10.9845  11.5257  11.5360  11.6344  11.6518
    11.8791  11.8803  12.2677  12.2698  12.3589  12.3663  12.8613  12.8899
    13.1856  13.1870  13.3159  13.3241  13.3729  13.3786  13.4902  13.5013
    13.6161  13.6166  13.7554  13.7582  13.8840  13.8861  14.2812  14.2852
    14.7471  14.7482  15.0142  15.0552  15.2806  15.2883  15.5574  15.5802
    15.6396  15.6893  15.8650  15.8665  16.2685  16.3004  16.4472  16.4533
    16.5525  16.5552  16.7120  16.7191  16.9064  16.9098  17.0292  17.0314
    17.1162  17.1643  17.2223  17.2455  17.7246  17.7273  17.9438  17.9466
    18.0310  18.0338  18.3909  18.3978  18.4733  18.4733  18.5085  18.5174
    18.5657  18.5684  18.7195  18.7255  18.8979  18.8981  18.9688  18.9717
    19.1200  19.1338  19.2328  19.2341  19.2973  19.3131  19.4320  19.4331
    19.5473  19.5518  19.7228  19.7293  19.7412  19.7421  19.8393  19.8394
    20.0031  20.0040  20.2358  20.2488  20.4104  20.4300  20.4818  20.4829
    20.5567  20.5671  20.6827  20.6864  20.7952  20.7962  20.9531  20.9579
    21.1026  21.1163  21.1307  21.1466  21.3816  21.3908  21.4082  21.4156
    21.5296  21.5303  21.6554  21.6601  21.7232  21.7339  21.9182  21.9280
    22.0607  22.0614  22.2106  22.2207  22.3741  22.3857  22.6112  22.6136
    22.6886  22.6905  22.9685  22.9804  23.2166  23.2170  23.4241  23.4416
    23.4574  23.4654  23.5303  23.5405  23.6737  23.6750  23.8019  23.8023
    23.9471  23.9650  24.0574  24.0630  24.2100  24.2111  24.3429  24.3473
    24.4578  24.4597  24.4937  24.4976  24.6895  24.6932  24.7629  24.7670
    24.9209  24.9309  25.0441  25.0465  25.1614  25.1698  25.2146  25.2167
    25.3883  25.3931  25.4568  25.4695  25.7920  25.7928  25.9057  25.9059
    26.1887  26.1910  26.2951  26.2953  26.5391  26.5502  26.6341  26.6375
    26.8023  26.8030  26.8284  26.8403  26.9657  26.9661  27.0675  27.0710
    27.3342  27.3347  27.5921  27.5961  27.6763  27.6782  28.1505  28.1641
    28.1981  28.1991  28.2540  28.2548  28.3349  28.3405  28.5259  28.5259
    28.7786  28.7795  28.9778  28.9841  29.0369  29.0439  29.0807  29.0817
    29.2952  29.3004  29.3703  29.3786  29.5315  29.5337  29.6848  29.6849
    29.8669  29.8672  30.2122  30.2211  30.4963  30.5210  30.6290  30.6370
    30.8139  30.8253  30.9929  30.9951  31.0797  31.0806  31.1019  31.1046
    31.2650  31.2817  31.3259  31.3277  31.4539  31.4604  31.4692  31.4722
    31.5920  31.6315  31.6560  31.6780  31.8103  31.8123  31.8966  31.9030
    31.9935  32.0223  32.1214  32.1240  32.1608  32.1666  32.3038  32.3095
    32.3332  32.3350  32.3632  32.3640  32.3962  32.4034  32.4784  32.4898
    32.5393  32.5495  32.7115  32.7447  32.7530  32.7644  32.8902  32.8993
    33.1133  33.1163  33.1613  33.1626  33.3702  33.3716  33.4783  33.4923
    33.5132  33.5362  33.5777  33.5787  33.7000  33.7173  33.7336  33.7337
    33.8459  33.8820  34.0315  34.0473  34.2019  34.2022  34.2790  34.3056
    34.5573  34.5619  34.5824  34.6020  34.6140  34.6984  34.8123  34.8235
    34.8551  34.8578  34.9810  34.9861  35.0042  35.0209  35.1608  35.1840
    35.4478  35.4507  35.5255  35.5425  35.7557  35.7565  35.8750  35.9174
    36.0289  36.0296  36.3320  36.3636  36.3769  36.3786  36.4774  36.4800
    36.5749  36.5780  36.6531  36.6542  36.7107  36.7141  36.8822  36.8839
    37.2672  37.2853  37.4959  37.4969  37.5746  37.5827  37.5957  37.5957
    37.7064  37.7271  37.8044  37.8051  37.8924  37.8935  37.9750  38.0101
    38.0334  38.0482  38.1062  38.1256  38.2803  38.2907  38.3816  38.4072
    38.4543  38.4733  38.7747  38.7815  38.8881  38.8965  38.9945  38.9974
    39.0601  39.0875  39.1014  39.1318

          k = 0.4667 0.2694 0.0000 ( 45654 PWs)   bands (ev):

   -27.2769 -27.2769 -27.1993 -27.1993 -24.3305 -24.3304 -24.2484 -24.2484
   -24.2053 -24.2053 -18.4063 -18.4061 -18.0868 -18.0867 -17.8362 -17.8351
   -17.6672 -17.6666 -17.5963 -17.5961 -17.5009 -17.4994 -17.0248 -17.0245
   -13.1984 -13.1975  -9.1924  -9.1734  -6.8655  -6.8079  -6.1693  -6.1435
    -5.7500  -5.7491  -5.4209  -5.4177  -5.1704  -5.1697  -5.0028  -4.9989
    -3.8520  -3.8461  -1.8202  -1.8156  -0.5063  -0.4930   1.5118   1.5649
     3.1634   3.2004   3.6611   3.6665   3.9773   4.0147   4.4974   4.5105
     4.7667   4.8321   4.8778   5.0063   5.2544   5.2988   5.4660   5.4684
     5.7824   5.8351   6.0067   6.0475   6.2192   6.2251   6.3460   6.3541
     6.7766   6.7830   6.9013   6.9221   7.1428   7.1652   7.4489   7.4512
     7.6693   7.6958   8.0114   8.0142   8.3804   8.3899   8.6708   8.6729
     8.7801   8.7861   8.9748   9.0075   9.0759   9.0997   9.2237   9.2903
     9.3877   9.3926   9.7693   9.7782   9.8669   9.8680   9.8974   9.9004
    10.1268  10.1275  10.3801  10.3807  10.5710  10.5713  10.8413  10.8424
    10.8978  10.9068  11.0035  11.0044  11.3566  11.3830  11.6132  11.6245
    11.8973  11.8992  12.2824  12.2842  12.3652  12.3777  12.9754  12.9933
    13.1924  13.1954  13.2865  13.3064  13.3699  13.3755  13.4956  13.4998
    13.6103  13.6118  13.8372  13.8385  13.8908  13.8923  14.3100  14.3186
    14.7560  14.7580  14.9346  14.9996  15.1885  15.1927  15.5743  15.5816
    15.6836  15.7999  15.9129  15.9154  16.2171  16.2736  16.4269  16.4349
    16.5064  16.5096  16.6622  16.6633  16.8744  16.8767  17.0051  17.0055
    17.1742  17.2057  17.3208  17.3214  17.6929  17.6973  17.8168  17.8197
    17.9472  17.9568  18.1813  18.1900  18.3971  18.4153  18.4563  18.4573
    18.6183  18.6233  18.6544  18.6655  18.8657  18.8665  18.9790  18.9840
    19.1682  19.1763  19.2421  19.2423  19.3597  19.3664  19.4540  19.4561
    19.5061  19.5086  19.8318  19.8485  19.8588  19.8599  19.9908  19.9937
    20.0103  20.0216  20.2784  20.2822  20.4705  20.4778  20.4986  20.5163
    20.5705  20.5854  20.6032  20.6129  20.8468  20.8620  20.8820  20.8840
    20.9744  20.9810  21.1630  21.1739  21.2130  21.2140  21.4241  21.4399
    21.6115  21.6124  21.6430  21.6573  21.8013  21.8101  21.9785  21.9836
    22.1289  22.1292  22.2108  22.2140  22.3838  22.3843  22.5133  22.5170
    22.7055  22.7094  22.7153  22.7247  23.0039  23.0136  23.3641  23.3692
    23.4412  23.4533  23.6088  23.6234  23.7758  23.7805  23.8381  23.8506
    23.9972  24.0027  24.0860  24.0962  24.2988  24.3002  24.3174  24.3177
    24.4593  24.4644  24.5347  24.5391  24.6953  24.7054  24.7752  24.7810
    24.8841  24.8971  25.1055  25.1168  25.2230  25.2252  25.2730  25.2760
    25.4572  25.4603  25.6041  25.6093  25.7967  25.7983  25.9411  25.9419
    26.1692  26.1704  26.2165  26.2182  26.4799  26.4872  26.7448  26.7471
    26.7871  26.7875  26.8391  26.8544  27.0107  27.0273  27.0580  27.0647
    27.3926  27.3982  27.5743  27.5779  27.7197  27.7244  28.0712  28.0740
    28.1141  28.1190  28.2663  28.2693  28.3624  28.3628  28.4555  28.4661
    28.7886  28.7891  28.8557  28.8577  29.0177  29.0227  29.0622  29.0628
    29.2954  29.3020  29.4730  29.4824  29.6131  29.6249  29.8735  29.8759
    29.9562  29.9575  30.1746  30.1872  30.4150  30.4617  30.5313  30.5339
    30.7813  30.7814  30.9439  30.9475  30.9699  30.9759  31.0732  31.0877
    31.2512  31.2551  31.3124  31.3170  31.4388  31.4602  31.5443  31.5523
    31.6088  31.6166  31.6476  31.6508  31.7566  31.7571  31.9120  31.9243
    31.9765  31.9957  32.0867  32.0942  32.1344  32.1344  32.2523  32.2564
    32.3224  32.3392  32.3733  32.3750  32.4364  32.4616  32.4834  32.4940
    32.5823  32.5887  32.7532  32.7537  32.8375  32.8379  32.9323  32.9356
    33.0900  33.0926  33.1466  33.1572  33.3275  33.3330  33.3895  33.3999
    33.5591  33.5659  33.5946  33.6019  33.6582  33.6850  33.7647  33.7649
    33.8556  33.8957  34.2091  34.2196  34.2268  34.2368  34.2660  34.2931
    34.5150  34.5952  34.6626  34.6807  34.6808  34.6997  34.7657  34.7693
    34.9236  34.9284  34.9613  34.9631  35.0474  35.0736  35.2017  35.2593
    35.4820  35.4857  35.5507  35.5759  35.7608  35.7609  35.8507  35.9207
    36.1323  36.1387  36.2802  36.3265  36.3704  36.3717  36.4311  36.4326
    36.5429  36.5519  36.5852  36.5976  36.7227  36.7232  36.9259  36.9305
    37.2036  37.2282  37.3866  37.3887  37.5347  37.5519  37.5659  37.5775
    37.6494  37.6639  37.7649  37.7992  37.8445  37.8455  37.9484  37.9503
    38.0193  38.0263  38.1364  38.1417  38.3017  38.3071  38.3562  38.3687
    38.5940  38.6007  38.8193  38.8230  38.8683  38.8826  39.0653  39.0739
    39.1293  39.1397  39.1610  39.1706

          k = 0.4500 0.2598 0.0000 ( 45672 PWs)   bands (ev):

   -27.2770 -27.2769 -27.1993 -27.1993 -24.3306 -24.3303 -24.2484 -24.2484
   -24.2053 -24.2053 -18.4065 -18.4061 -18.0867 -18.0866 -17.8364 -17.8348
   -17.6673 -17.6662 -17.5963 -17.5961 -17.5023 -17.5001 -17.0254 -17.0250
   -13.2074 -13.2062  -9.1781  -9.1496  -6.8762  -6.7902  -6.1710  -6.1327
    -5.7456  -5.7443  -5.4188  -5.4140  -5.1694  -5.1685  -4.9986  -4.9926
    -3.8480  -3.8391  -1.8166  -1.8097  -0.5203  -0.5013   1.5140   1.5938
     3.1053   3.1612   3.6398   3.6483   3.8616   3.8926   4.4416   4.4590
     4.6746   4.7194   4.9381   5.0713   5.3145   5.3661   5.4405   5.4559
     5.7519   5.7943   6.0570   6.0634   6.1902   6.1914   6.4069   6.4408
     6.7033   6.7203   6.8688   6.9148   7.2108   7.2351   7.5278   7.5356
     7.8255   7.8538   8.0140   8.0211   8.3272   8.3377   8.6508   8.6524
     8.8099   8.8241   8.9929   9.0207   9.0523   9.0788   9.2435   9.2745
     9.3141   9.3520   9.7944   9.8060   9.8849   9.8851   9.9594   9.9623
    10.1636  10.1652  10.4318  10.4351  10.5777  10.5780  10.8268  10.8317
    10.8931  10.9072  11.0330  11.0343  11.1671  11.1855  11.6101  11.6208
    11.9284  11.9310  12.2955  12.2956  12.3812  12.3976  12.9474  12.9580
    13.2011  13.2042  13.3168  13.3499  13.4153  13.4238  13.5637  13.5724
    13.5996  13.6034  13.8266  13.8270  13.9825  13.9932  14.3507  14.3651
    14.7712  14.7739  14.8324  14.8907  15.1115  15.1135  15.5387  15.5579
    15.7654  15.9172  15.9854  15.9883  16.1554  16.2193  16.4061  16.4091
    16.4639  16.4674  16.6138  16.6163  16.8091  16.8139  16.9673  16.9709
    17.1790  17.1867  17.4815  17.5009  17.5922  17.5943  17.6255  17.6326
    17.8878  17.8914  18.0323  18.0387  18.2866  18.3097  18.3285  18.3313
    18.5227  18.5562  18.5922  18.5940  18.8606  18.8625  18.9585  18.9590
    19.2032  19.2166  19.3067  19.3071  19.3783  19.3787  19.4683  19.4702
    19.6280  19.6428  19.9278  19.9282  19.9680  19.9693  20.0592  20.0593
    20.2047  20.2062  20.3051  20.3125  20.4909  20.5044  20.5208  20.5211
    20.5479  20.5523  20.6452  20.6453  20.7594  20.7712  20.8154  20.8282
    21.0034  21.0120  21.0825  21.0925  21.2050  21.2062  21.4519  21.4664
    21.5787  21.5812  21.6967  21.6967  21.7329  21.7412  21.9666  21.9678
    22.1992  22.2113  22.2257  22.2268  22.3402  22.3432  22.4593  22.4600
    22.7085  22.7231  22.7570  22.7606  22.8345  22.8380  23.2483  23.2577
    23.3031  23.3107  23.5707  23.5883  23.7595  23.7622  23.8314  23.8359
    24.0521  24.0671  24.2056  24.2099  24.3243  24.3305  24.3815  24.3845
    24.4872  24.4872  24.6445  24.6551  24.6748  24.6823  24.7829  24.7886
    24.9274  24.9366  25.1729  25.1821  25.3644  25.3676  25.4150  25.4156
    25.5399  25.5425  25.6956  25.7045  25.8238  25.8261  25.9639  25.9639
    26.1443  26.1443  26.2489  26.2579  26.4231  26.4236  26.6995  26.7104
    26.7768  26.7786  26.8955  26.9014  27.0700  27.0770  27.1585  27.1643
    27.3743  27.3769  27.5397  27.5400  27.9035  27.9071  27.9505  27.9516
    28.0352  28.0521  28.1619  28.1746  28.3198  28.3355  28.5574  28.5638
    28.6103  28.6171  28.8152  28.8154  29.0238  29.0389  29.1109  29.1122
    29.2915  29.2954  29.5038  29.5170  29.8189  29.8565  29.9076  29.9307
    30.0533  30.0585  30.2352  30.2481  30.3555  30.3952  30.4385  30.4499
    30.6627  30.6638  30.8085  30.8101  30.9250  30.9310  31.1086  31.1242
    31.1860  31.1897  31.3175  31.3259  31.4190  31.4501  31.5228  31.5407
    31.6140  31.6258  31.6961  31.7041  31.7318  31.7403  31.8549  31.8769
    31.9234  31.9242  31.9839  31.9917  32.0452  32.0488  32.0643  32.0783
    32.3853  32.4335  32.4576  32.4613  32.5113  32.5200  32.5469  32.5540
    32.6789  32.6826  32.7709  32.8102  32.8869  32.8911  32.9555  32.9572
    33.0698  33.0795  33.0909  33.0966  33.2855  33.2899  33.4126  33.4231
    33.5160  33.5495  33.5590  33.5847  33.7139  33.8016  33.8377  33.8392
    33.9153  33.9279  34.1632  34.2010  34.2728  34.2744  34.4453  34.4491
    34.5129  34.5926  34.6679  34.6704  34.7474  34.7557  34.8197  34.8206
    34.9515  34.9582  34.9731  34.9783  35.0586  35.0616  35.3802  35.3939
    35.5392  35.5414  35.5940  35.6046  35.7451  35.7471  35.8673  35.9338
    36.1892  36.2245  36.2677  36.2721  36.3761  36.3779  36.3992  36.4022
    36.4564  36.4656  36.5702  36.5830  36.7247  36.7289  36.9214  36.9250
    37.2087  37.2188  37.2416  37.2456  37.4291  37.4504  37.4787  37.4820
    37.6455  37.6720  37.6771  37.6887  37.8138  37.8213  37.9033  37.9132
    38.0652  38.0780  38.1328  38.1343  38.3277  38.3338  38.4107  38.4185
    38.6502  38.6559  38.8456  38.8692  38.9318  38.9378  39.0512  39.0913
    39.2062  39.2229  39.2595  39.2616

          k = 0.4333 0.2502 0.0000 ( 45662 PWs)   bands (ev):

   -27.2770 -27.2769 -27.1993 -27.1993 -24.3307 -24.3303 -24.2484 -24.2484
   -24.2054 -24.2053 -18.4067 -18.4062 -18.0865 -18.0865 -17.8365 -17.8344
   -17.6672 -17.6659 -17.5964 -17.5961 -17.5040 -17.5011 -17.0264 -17.0257
   -13.2198 -13.2182  -9.1568  -9.1186  -6.8851  -6.7711  -6.1705  -6.1203
    -5.7394  -5.7377  -5.4155  -5.4092  -5.1681  -5.1668  -4.9923  -4.9842
    -3.8419  -3.8299  -1.8112  -1.8022  -0.5377  -0.5143   1.5209   1.6276
     3.0263   3.0999   3.5899   3.6013   3.7618   3.7764   4.3700   4.3895
     4.5744   4.6026   5.0130   5.1356   5.3130   5.3513   5.4750   5.4848
     5.7399   5.7577   5.9839   6.0124   6.2257   6.2593   6.4713   6.4986
     6.6370   6.6630   6.8842   6.9578   7.2808   7.3062   7.6196   7.6349
     7.9699   7.9755   8.0568   8.0900   8.2678   8.2766   8.6232   8.6236
     8.8305   8.8615   9.0026   9.0096   9.0484   9.0896   9.1582   9.1680
     9.3743   9.4328   9.8275   9.8417   9.9060   9.9083  10.0007  10.0035
    10.2059  10.2089  10.4548  10.4723  10.6007  10.6016  10.7758  10.7928
    10.8761  10.8813  11.0609  11.0629  11.0745  11.0754  11.6171  11.6295
    11.9726  11.9756  12.2990  12.3005  12.4031  12.4211  12.8385  12.8582
    13.2030  13.2069  13.3293  13.3537  13.4586  13.4602  13.5654  13.5678
    13.7610  13.7630  13.8185  13.8311  14.0679  14.0979  14.3850  14.4048
    14.7390  14.7785  14.7940  14.7962  15.0554  15.0705  15.4764  15.5031
    15.8460  16.0007  16.0685  16.0730  16.1220  16.1585  16.3752  16.3950
    16.4307  16.4391  16.5700  16.5709  16.7257  16.7322  16.9229  16.9297
    17.1665  17.1692  17.3654  17.3671  17.4973  17.5017  17.6619  17.6856
    17.7350  17.7384  17.9585  17.9775  18.1459  18.1531  18.1888  18.1968
    18.4266  18.4554  18.5096  18.5260  18.8749  18.8754  18.9173  18.9204
    19.0955  19.1070  19.3572  19.3583  19.5062  19.5082  19.5295  19.5299
    19.7811  19.8017  19.9412  19.9546  20.0688  20.0705  20.1457  20.1593
    20.2304  20.2446  20.3661  20.3667  20.4583  20.4590  20.5514  20.5548
    20.5916  20.5943  20.7102  20.7169  20.7672  20.7727  20.7976  20.7998
    20.9224  20.9522  21.1801  21.1881  21.2292  21.2371  21.3522  21.3532
    21.4793  21.4872  21.6414  21.6534  21.8401  21.8452  21.8671  21.8720
    22.0350  22.0494  22.3191  22.3197  22.3771  22.3811  22.5020  22.5127
    22.6051  22.6129  22.8305  22.8337  22.9967  23.0050  23.1335  23.1436
    23.1923  23.1989  23.4154  23.4193  23.6542  23.6602  23.7583  23.7595
    24.0495  24.0528  24.2867  24.2923  24.3660  24.3682  24.4400  24.4416
    24.5456  24.5711  24.6181  24.6209  24.7910  24.7956  24.8302  24.8360
    25.1450  25.1455  25.2615  25.2632  25.4722  25.4726  25.4958  25.5031
    25.6103  25.6161  25.8146  25.8241  25.9166  25.9200  26.0101  26.0157
    26.1388  26.1403  26.2724  26.2781  26.4467  26.4703  26.5802  26.5827
    26.7861  26.7869  26.9569  26.9666  27.1076  27.1174  27.2416  27.2477
    27.3166  27.3253  27.6558  27.6590  27.8178  27.8211  27.8653  27.8735
    28.0308  28.0463  28.1576  28.1626  28.2697  28.2805  28.4992  28.5053
    28.6801  28.7089  28.7341  28.7408  29.0175  29.0422  29.1204  29.1224
    29.4049  29.4053  29.5266  29.5308  29.7811  29.7878  30.0242  30.0501
    30.1116  30.1144  30.2683  30.3031  30.4033  30.4144  30.4337  30.4352
    30.5817  30.5884  30.6853  30.6865  30.8860  30.8869  31.0998  31.1038
    31.1680  31.1869  31.2979  31.2980  31.4145  31.4573  31.4689  31.4764
    31.5561  31.6008  31.6814  31.6917  31.7451  31.7455  31.7681  31.7684
    31.8403  31.8404  31.9032  31.9068  31.9523  31.9576  31.9855  31.9872
    32.4415  32.4541  32.4942  32.4978  32.5610  32.5811  32.6100  32.6107
    32.6893  32.7002  32.8509  32.8590  32.8854  32.8922  32.9736  32.9979
    33.0890  33.0925  33.1873  33.1995  33.2930  33.2951  33.3834  33.3845
    33.4663  33.4988  33.5859  33.6138  33.7927  33.8751  33.9480  33.9505
    34.0064  34.0138  34.1515  34.1722  34.2971  34.3011  34.4995  34.5419
    34.6231  34.6307  34.6411  34.6432  34.7189  34.7471  34.8733  34.8745
    35.0371  35.0383  35.0539  35.0601  35.1561  35.1582  35.4320  35.4456
    35.5529  35.5552  35.6866  35.6979  35.7571  35.7574  35.9257  35.9503
    36.1780  36.1899  36.2333  36.2482  36.3332  36.3384  36.3521  36.3622
    36.5077  36.5149  36.5843  36.5860  36.7761  36.7796  36.8417  36.8694
    37.0921  37.1024  37.2230  37.2305  37.2725  37.2847  37.4740  37.4741
    37.5388  37.5532  37.6297  37.6411  37.8652  37.8730  37.8861  37.8982
    38.0667  38.0899  38.1312  38.1402  38.3493  38.3643  38.5616  38.5672
    38.5673  38.5801  38.8050  38.8105  39.0587  39.0615  39.1460  39.1709
    39.3294  39.3415  39.3549  39.3568

          k = 0.4167 0.2406 0.0000 ( 45675 PWs)   bands (ev):

   -27.2770 -27.2768 -27.1993 -27.1993 -24.3307 -24.3303 -24.2484 -24.2484
   -24.2054 -24.2054 -18.4069 -18.4063 -18.0864 -18.0863 -17.8366 -17.8341
   -17.6671 -17.6654 -17.5965 -17.5962 -17.5061 -17.5025 -17.0275 -17.0267
   -13.2351 -13.2332  -9.1289  -9.0810  -6.8921  -6.7508  -6.1678  -6.1065
    -5.7314  -5.7295  -5.4110  -5.4032  -5.1664  -5.1647  -4.9839  -4.9736
    -3.8337  -3.8184  -1.8044  -1.7933  -0.5581  -0.5317   1.5307   1.6650
     2.9278   3.0147   3.4862   3.5052   3.7036   3.7042   4.2924   4.3138
     4.4762   4.4923   5.0649   5.1376   5.2729   5.3527   5.5237   5.5486
     5.7360   5.7453   5.8813   5.9195   6.2514   6.3443   6.4743   6.5455
     6.6229   6.6264   6.9607   7.0532   7.3532   7.3784   7.7192   7.7436
     7.9857   7.9872   8.1963   8.2117   8.2502   8.2772   8.5919   8.5943
     8.8209   8.8645   8.9993   9.0307   9.0533   9.0647   9.1032   9.1296
     9.4699   9.5279   9.8632   9.8795   9.9324   9.9387  10.0284  10.0310
    10.2394  10.2432  10.3702  10.4117  10.6449  10.6449  10.7373  10.7426
    10.8793  10.8805  11.0583  11.0618  11.1140  11.1159  11.6365  11.6511
    12.0298  12.0333  12.2951  12.2978  12.4110  12.4290  12.7421  12.7674
    13.1874  13.1926  13.3344  13.3549  13.4799  13.4818  13.5310  13.5346
    13.8241  13.8312  13.9433  13.9459  14.1134  14.1688  14.4106  14.4204
    14.7147  14.7487  14.8224  14.8248  15.0375  15.0597  15.3976  15.4349
    15.8977  15.9777  16.1164  16.1409  16.1498  16.1848  16.3459  16.3761
    16.4098  16.4121  16.5348  16.5379  16.6431  16.6517  16.8770  16.8836
    17.1197  17.1268  17.1642  17.1645  17.3316  17.3352  17.5586  17.5621
    17.7976  17.8151  17.9249  17.9394  17.9542  17.9580  18.0825  18.0887
    18.3352  18.3458  18.4792  18.5025  18.8503  18.8544  18.8847  18.8885
    18.9852  18.9956  19.3472  19.3476  19.6235  19.6235  19.6370  19.6400
    19.8202  19.8350  19.9131  19.9208  20.1480  20.1484  20.1647  20.1690
    20.2584  20.2647  20.3513  20.3518  20.4478  20.4524  20.6270  20.6277
    20.6612  20.6674  20.7451  20.7537  20.8345  20.8544  20.8855  20.8950
    20.9729  20.9749  21.0956  21.0956  21.2581  21.2586  21.2821  21.2892
    21.5040  21.5071  21.6558  21.6573  21.6894  21.6905  21.9141  21.9145
    21.9873  22.0116  22.1703  22.1737  22.4534  22.4551  22.5701  22.5813
    22.7765  22.7888  22.9160  22.9166  22.9793  22.9888  23.0571  23.0666
    23.1433  23.1480  23.2445  23.2505  23.6426  23.6430  23.7862  23.7866
    23.8744  23.8858  24.2901  24.2993  24.3400  24.3429  24.3666  24.3872
    24.6826  24.6840  24.7089  24.7132  24.8480  24.8486  25.0111  25.0126
    25.2035  25.2064  25.4667  25.4731  25.5178  25.5205  25.5581  25.5608
    25.7680  25.7781  25.8612  25.8675  25.9684  25.9752  26.1339  26.1343
    26.1638  26.1642  26.3577  26.3760  26.4522  26.4604  26.5535  26.5606
    26.8272  26.8276  26.9814  26.9826  27.0876  27.0919  27.2695  27.2742
    27.3866  27.3883  27.6867  27.7002  27.7142  27.7186  27.8246  27.8254
    27.9213  27.9298  28.1705  28.1975  28.3112  28.3253  28.5470  28.5639
    28.6358  28.6402  28.7774  28.8024  29.0341  29.0608  29.0869  29.0948
    29.5316  29.5587  29.5853  29.5871  29.6822  29.6825  29.9774  29.9963
    30.0946  30.0987  30.2640  30.2891  30.4381  30.4439  30.5512  30.5591
    30.6097  30.6244  30.6467  30.6474  30.8511  30.8553  31.0070  31.0099
    31.1788  31.1794  31.2711  31.2961  31.3673  31.3749  31.4138  31.4213
    31.5194  31.5231  31.5721  31.5785  31.7064  31.7081  31.7132  31.7157
    31.7748  31.7798  31.8538  31.8545  31.9598  31.9697  31.9987  31.9995
    32.3369  32.3650  32.4561  32.4683  32.5420  32.5585  32.6842  32.6936
    32.7544  32.7844  32.8589  32.8599  32.9476  32.9555  33.0160  33.0471
    33.1208  33.1212  33.2671  33.2725  33.3364  33.3437  33.3714  33.3718
    33.5340  33.5498  33.6457  33.6650  33.8298  33.8701  34.0300  34.0354
    34.0734  34.0752  34.2224  34.2239  34.2856  34.2907  34.5158  34.5173
    34.6376  34.6588  34.6696  34.6710  34.8066  34.8528  34.9080  34.9101
    35.1311  35.1314  35.1377  35.1430  35.2916  35.2953  35.4353  35.4372
    35.4957  35.5014  35.7693  35.7702  35.8187  35.8286  35.9849  35.9865
    36.1528  36.1656  36.1911  36.1974  36.2968  36.3017  36.3455  36.3668
    36.4802  36.5062  36.6846  36.6886  36.7463  36.7535  36.8834  36.9174
    37.0151  37.0240  37.1019  37.1152  37.2032  37.2119  37.4395  37.4488
    37.5110  37.5144  37.6216  37.6286  37.8645  37.8815  37.9388  37.9542
    38.0670  38.0808  38.1229  38.1383  38.3487  38.3638  38.5012  38.5072
    38.7236  38.7279  38.7953  38.8030  39.1337  39.1350  39.2046  39.2084
    39.3919  39.3931  39.4163  39.4193

          k = 0.4000 0.2309 0.0000 ( 45689 PWs)   bands (ev):

   -27.2771 -27.2768 -27.1994 -27.1994 -24.3308 -24.3303 -24.2484 -24.2483
   -24.2055 -24.2055 -18.4071 -18.4065 -18.0861 -18.0861 -17.8367 -17.8337
   -17.6669 -17.6650 -17.5966 -17.5962 -17.5085 -17.5043 -17.0288 -17.0279
   -13.2532 -13.2509  -9.0950  -9.0372  -6.8970  -6.7292  -6.1628  -6.0913
    -5.7218  -5.7196  -5.4055  -5.3963  -5.1642  -5.1623  -4.9734  -4.9608
    -3.8234  -3.8048  -1.7964  -1.7833  -0.5808  -0.5530   1.5408   1.7038
     2.8139   2.9050   3.3502   3.3820   3.6592   3.6676   4.2147   4.2385
     4.3848   4.3915   5.0436   5.0657   5.2813   5.4171   5.5484   5.5622
     5.7594   5.7725   5.7923   5.8300   6.2134   6.3260   6.4880   6.5839
     6.6575   6.6655   7.0760   7.1776   7.4288   7.4519   7.8201   7.8557
     7.9744   7.9774   8.1542   8.1557   8.4076   8.4264   8.6012   8.6193
     8.7870   8.8234   8.9709   8.9780   9.0617   9.0827   9.1457   9.1773
     9.5697   9.6275   9.8925   9.9062   9.9679   9.9784  10.0499  10.0519
    10.2090  10.2465  10.2645  10.2728  10.7031  10.7060  10.7511  10.7623
    10.9062  10.9096  11.0953  11.0976  11.1615  11.1639  11.6702  11.6870
    12.1000  12.1037  12.2817  12.2850  12.3827  12.4021  12.6948  12.7220
    13.1448  13.1513  13.3383  13.3555  13.4947  13.4947  13.5074  13.5146
    13.8651  13.8666  13.9746  13.9814  14.1242  14.1668  14.4384  14.4456
    14.8061  14.8413  14.8589  14.8607  15.0575  15.0817  15.3327  15.3925
    15.8972  15.9223  16.1132  16.1607  16.1693  16.2484  16.3250  16.3610
    16.3825  16.3893  16.5221  16.5355  16.5921  16.6032  16.8287  16.8313
    16.9121  16.9148  17.0841  17.0902  17.1927  17.1991  17.3881  17.3896
    17.7390  17.7456  17.7559  17.7606  17.9183  17.9247  18.1264  18.1354
    18.2246  18.2284  18.4819  18.4863  18.7989  18.8078  18.8607  18.8619
    18.9089  18.9170  19.3049  19.3053  19.6584  19.6667  19.6747  19.6764
    19.7577  19.7637  19.8125  19.8289  20.1295  20.1322  20.2023  20.2033
    20.3512  20.3542  20.3607  20.3633  20.4444  20.4506  20.6024  20.6566
    20.6663  20.6679  20.8209  20.8240  20.8580  20.8586  20.9350  20.9431
    21.0740  21.0787  21.2301  21.2374  21.3152  21.3189  21.3614  21.3616
    21.4011  21.4058  21.5334  21.5380  21.7421  21.7468  21.9254  21.9263
    21.9589  21.9592  22.1488  22.1672  22.5575  22.5716  22.6093  22.6102
    22.7700  22.7849  22.9022  22.9221  22.9680  22.9728  23.0139  23.0171
    23.1662  23.1680  23.2154  23.2357  23.6114  23.6119  23.8214  23.8291
    23.8610  23.8636  24.2325  24.2537  24.2984  24.3011  24.3230  24.3269
    24.7365  24.7408  24.7994  24.8153  24.9658  24.9681  24.9914  24.9962
    25.3176  25.3261  25.5384  25.5428  25.5603  25.5652  25.6994  25.7131
    25.8782  25.8836  25.9160  25.9173  26.0490  26.0560  26.1837  26.1843
    26.2451  26.2451  26.4011  26.4012  26.5338  26.5346  26.6565  26.6681
    26.8926  26.8945  27.0164  27.0333  27.0873  27.1323  27.1933  27.1987
    27.3568  27.3750  27.6408  27.6418  27.7314  27.7355  27.8237  27.8283
    27.8976  27.8999  28.1497  28.1562  28.3859  28.3883  28.5481  28.5631
    28.6472  28.6803  28.8799  28.9045  29.0449  29.0468  29.0673  29.0714
    29.4976  29.5523  29.6728  29.6817  29.7540  29.7559  29.9297  29.9366
    30.0508  30.0567  30.2127  30.2339  30.3632  30.3678  30.5521  30.5642
    30.7027  30.7291  30.7438  30.7467  30.8632  30.8754  30.9156  30.9189
    31.1159  31.1160  31.1635  31.1910  31.2557  31.2614  31.3751  31.3905
    31.4657  31.4832  31.5335  31.5422  31.6182  31.6184  31.7106  31.7207
    31.8082  31.8135  31.8559  31.8580  31.9769  31.9953  32.0133  32.0144
    32.2380  32.2545  32.3964  32.4010  32.5230  32.5296  32.7293  32.7435
    32.8002  32.8426  32.9025  32.9032  32.9389  32.9837  33.0627  33.0895
    33.1301  33.1399  33.3135  33.3370  33.3553  33.3716  33.4558  33.4574
    33.6626  33.6711  33.7165  33.7216  33.8255  33.8347  34.0396  34.0497
    34.1576  34.1659  34.2364  34.2391  34.3342  34.3373  34.4661  34.4718
    34.6776  34.6829  34.7794  34.7935  34.9063  34.9409  34.9542  34.9727
    35.1690  35.1786  35.1919  35.1931  35.3426  35.3644  35.4586  35.4641
    35.5368  35.5499  35.7521  35.7570  35.8771  35.8848  36.0445  36.0446
    36.1352  36.1375  36.1713  36.1872  36.2768  36.2850  36.3541  36.3586
    36.5455  36.5638  36.6500  36.6701  36.7144  36.7397  36.9493  36.9596
    37.0189  37.0316  37.0841  37.0864  37.1885  37.1925  37.4014  37.4078
    37.4620  37.4707  37.7351  37.7363  37.8322  37.8488  37.9192  37.9501
    38.0894  38.0926  38.1554  38.1708  38.2755  38.2903  38.5066  38.5080
    38.8558  38.8562  38.8691  38.8740  39.0987  39.0991  39.1392  39.1414
    39.3952  39.3990  39.4196  39.4224

          k = 0.3833 0.2213 0.0000 ( 45649 PWs)   bands (ev):

   -27.2771 -27.2768 -27.1994 -27.1994 -24.3309 -24.3304 -24.2484 -24.2483
   -24.2056 -24.2055 -18.4074 -18.4066 -18.0859 -18.0858 -17.8368 -17.8332
   -17.6666 -17.6644 -17.5967 -17.5963 -17.5113 -17.5065 -17.0303 -17.0293
   -13.2737 -13.2711  -9.0558  -8.9881  -6.8994  -6.7062  -6.1554  -6.0749
    -5.7106  -5.7082  -5.3988  -5.3883  -5.1618  -5.1595  -4.9610  -4.9458
    -3.8111  -3.7890  -1.7876  -1.7727  -0.6053  -0.5780   1.5472   1.7406
     2.6920   2.7753   3.2097   3.2514   3.6170   3.6296   4.1395   4.1654
     4.3040   4.3045   4.9669   4.9716   5.3219   5.4794   5.5418   5.5484
     5.6921   5.7304   5.8461   5.8511   6.1437   6.2374   6.5157   6.5624
     6.7358   6.7905   7.1989   7.3018   7.5084   7.5270   7.9041   7.9425
     7.9505   7.9659   8.1201   8.1410   8.4233   8.4276   8.7392   8.7513
     8.7848   8.8021   8.9118   8.9191   9.1297   9.1495   9.2053   9.2313
     9.6429   9.7054   9.8974   9.8981  10.0130  10.0291  10.0682  10.0691
    10.1141  10.1176  10.2801  10.2890  10.7551  10.7740  10.7843  10.7909
    10.9495  10.9551  11.1528  11.1546  11.2135  11.2165  11.7186  11.7369
    12.1821  12.1855  12.2416  12.2454  12.3476  12.3641  12.6927  12.7162
    13.0759  13.0832  13.3357  13.3485  13.4877  13.4878  13.5180  13.5258
    13.8472  13.8725  13.9346  13.9421  14.1569  14.1824  14.4208  14.4320
    14.8961  14.9002  14.9573  14.9596  15.0801  15.1138  15.3665  15.4612
    15.8710  15.8779  16.0729  16.0807  16.1392  16.2426  16.3287  16.3380
    16.3691  16.3855  16.5347  16.5618  16.5890  16.6002  16.6969  16.6985
    16.7692  16.7722  16.9445  16.9565  17.1411  17.1428  17.2151  17.2161
    17.5744  17.5756  17.6211  17.6230  17.8636  17.8800  18.1010  18.1021
    18.2586  18.2614  18.4736  18.4986  18.7479  18.7530  18.8211  18.8389
    18.8696  18.8713  19.2378  19.2389  19.4763  19.4777  19.6408  19.6649
    19.6844  19.6870  19.7701  19.7865  20.0996  20.1003  20.1424  20.1433
    20.2118  20.2183  20.4548  20.4707  20.5255  20.5433  20.5542  20.5632
    20.6472  20.6500  20.9366  20.9596  20.9878  20.9952  21.0040  21.0043
    21.1894  21.1902  21.2035  21.2105  21.3425  21.3693  21.4741  21.4871
    21.5591  21.5626  21.5889  21.5991  21.7011  21.7130  21.8653  21.8691
    21.9254  21.9255  22.3557  22.3583  22.4898  22.4930  22.6153  22.6508
    22.6926  22.6946  22.7972  22.7980  22.9880  22.9950  23.0822  23.0843
    23.1954  23.2066  23.3657  23.3806  23.4767  23.4785  23.8938  23.9014
    23.9747  23.9758  24.1434  24.1489  24.3098  24.3134  24.3642  24.3670
    24.7513  24.7571  24.7728  24.7855  25.0172  25.0210  25.0842  25.0849
    25.3440  25.3637  25.4837  25.4887  25.5669  25.5742  25.7926  25.7966
    25.9098  25.9134  26.0035  26.0110  26.2342  26.2426  26.2426  26.2507
    26.3523  26.3601  26.4986  26.5028  26.5228  26.5365  26.8162  26.8324
    26.8993  26.8995  27.0012  27.0036  27.0957  27.0990  27.2869  27.2907
    27.3549  27.3705  27.6405  27.6428  27.7603  27.7604  27.8505  27.8505
    27.8973  27.9046  28.1149  28.1224  28.4868  28.4935  28.5164  28.5205
    28.6722  28.7298  28.9213  28.9268  29.0337  29.0406  29.1108  29.1160
    29.5366  29.5859  29.6722  29.6743  29.8689  29.8714  29.9763  29.9776
    30.0328  30.0360  30.1727  30.1891  30.2951  30.2985  30.4657  30.4716
    30.7118  30.7457  30.7861  30.7927  30.8630  30.8777  30.8914  30.8929
    30.9581  31.0001  31.1127  31.1162  31.1553  31.1575  31.2971  31.3136
    31.4996  31.5102  31.5154  31.5250  31.6139  31.6256  31.6686  31.6803
    31.7578  31.7637  31.9206  31.9414  32.0041  32.0044  32.0716  32.0806
    32.2323  32.2370  32.3284  32.3302  32.5080  32.5336  32.7633  32.7815
    32.8210  32.8386  32.9050  32.9115  32.9830  32.9836  33.1122  33.1212
    33.1555  33.1605  33.3316  33.3811  33.4331  33.4437  33.4938  33.4967
    33.7094  33.7274  33.7799  33.7904  33.8682  33.8721  34.0539  34.0820
    34.2017  34.2230  34.2335  34.2364  34.4181  34.4465  34.4540  34.4543
    34.6527  34.6536  34.9095  34.9167  34.9540  34.9668  35.0019  35.0298
    35.2336  35.2420  35.2497  35.2514  35.3479  35.3760  35.5105  35.5137
    35.6081  35.6365  35.7477  35.7756  35.9277  35.9294  36.0307  36.0320
    36.0850  36.0875  36.2501  36.2575  36.2629  36.2713  36.3747  36.3798
    36.5813  36.5941  36.6520  36.6560  36.7847  36.8076  36.8695  36.8878
    37.1033  37.1124  37.1514  37.1515  37.1763  37.1953  37.4289  37.4529
    37.4786  37.4837  37.7828  37.7993  37.8305  37.8349  37.8668  37.8775
    38.0945  38.1004  38.1327  38.1544  38.3261  38.3448  38.5222  38.5223
    38.8621  38.8676  38.8801  38.8830  39.0702  39.0750  39.1210  39.1210
    39.2644  39.2664  39.3707  39.3872

          k = 0.3667 0.2117 0.0000 ( 45617 PWs)   bands (ev):

   -27.2771 -27.2769 -27.1994 -27.1994 -24.3310 -24.3304 -24.2483 -24.2483
   -24.2056 -24.2056 -18.4077 -18.4069 -18.0856 -18.0855 -17.8368 -17.8328
   -17.6662 -17.6638 -17.5967 -17.5964 -17.5143 -17.5090 -17.0320 -17.0309
   -13.2962 -13.2933  -9.0119  -8.9343  -6.8991  -6.6819  -6.1455  -6.0573
    -5.6978  -5.6954  -5.3911  -5.3793  -5.1590  -5.1564  -4.9465  -4.9287
    -3.7969  -3.7710  -1.7787  -1.7621  -0.6310  -0.6062   1.5444   1.7691
     2.5722   2.6364   3.0719   3.1187   3.5672   3.5824   4.0660   4.0923
     4.2342   4.2391   4.8741   4.8761   5.3381   5.4452   5.5547   5.5920
     5.6180   5.6583   5.9277   5.9281   6.0692   6.1460   6.5188   6.5431
     6.8413   6.9181   7.3078   7.3972   7.5905   7.6046   7.9060   7.9108
     7.9558   7.9948   8.1579   8.1835   8.3867   8.3892   8.7226   8.7399
     8.8278   8.8328   9.0180   9.0548   9.2046   9.2185   9.2751   9.2877
     9.6334   9.6872   9.8946   9.9015  10.0511  10.0580  10.0877  10.0911
    10.1319  10.1444  10.3009  10.3102  10.7831  10.8024  10.8413  10.8515
    10.9980  11.0042  11.2207  11.2222  11.2697  11.2735  11.7799  11.7979
    12.1636  12.1798  12.2787  12.2815  12.3430  12.3520  12.7021  12.7182
    12.9905  12.9981  13.3102  13.3162  13.4833  13.4837  13.5319  13.5386
    13.7406  13.7612  14.0070  14.0121  14.1700  14.1925  14.3716  14.3830
    14.9447  14.9474  14.9754  14.9770  15.1321  15.1547  15.5493  15.6466
    15.8728  15.8796  15.9437  15.9475  16.1105  16.1623  16.2941  16.3069
    16.3893  16.3898  16.4733  16.4749  16.5564  16.5880  16.6292  16.6457
    16.6747  16.6810  16.8546  16.8606  17.0264  17.0501  17.0835  17.0947
    17.4368  17.4442  17.4825  17.4866  17.8590  17.8791  17.9771  17.9804
    18.2705  18.2717  18.5506  18.5833  18.6897  18.6917  18.7924  18.8189
    18.8481  18.8490  19.1484  19.1505  19.2369  19.2376  19.4956  19.5138
    19.6712  19.6780  19.7025  19.7120  19.8809  19.8884  19.9941  19.9945
    20.2233  20.2255  20.3946  20.3977  20.4772  20.5071  20.6521  20.6738
    20.7755  20.7773  20.9237  20.9381  21.0904  21.0981  21.1341  21.1371
    21.2310  21.2340  21.3067  21.3083  21.3995  21.4226  21.5640  21.5908
    21.6638  21.6759  21.7324  21.7343  21.7579  21.7606  21.9350  21.9355
    21.9579  21.9616  22.2916  22.2933  22.4617  22.4767  22.6564  22.6571
    22.6956  22.7152  22.7643  22.7665  23.0085  23.0170  23.0357  23.0393
    23.2466  23.2471  23.4088  23.4307  23.6573  23.6650  23.8306  23.8463
    24.0868  24.0869  24.1036  24.1090  24.3370  24.3422  24.4900  24.4909
    24.7151  24.7232  24.7853  24.7854  25.0488  25.0554  25.1400  25.1403
    25.3326  25.3557  25.4293  25.4411  25.4517  25.4595  25.8703  25.8841
    25.9022  25.9045  26.0867  26.0905  26.2870  26.2988  26.3481  26.3594
    26.4690  26.4740  26.5300  26.5520  26.6536  26.6687  26.7216  26.7250
    26.8938  26.8968  27.0593  27.0767  27.1552  27.1584  27.4213  27.4277
    27.6100  27.6371  27.6636  27.6765  27.7045  27.7082  27.7851  27.7888
    28.0059  28.0075  28.1619  28.1851  28.4860  28.4944  28.5419  28.5421
    28.6793  28.7194  28.9122  28.9198  29.0405  29.0463  29.1748  29.1975
    29.6365  29.6583  29.7152  29.7749  29.8739  29.8786  29.9514  29.9609
    30.0315  30.0326  30.2054  30.2208  30.2997  30.3014  30.3805  30.3962
    30.6629  30.7023  30.7114  30.7209  30.7885  30.8161  30.9016  30.9053
    30.9248  30.9323  31.0399  31.0405  31.1430  31.1442  31.2143  31.2247
    31.4095  31.4106  31.5622  31.5664  31.5898  31.5966  31.6889  31.6952
    31.7428  31.7482  31.9464  31.9663  31.9782  31.9786  32.1703  32.1793
    32.2924  32.2935  32.3567  32.3642  32.5353  32.5713  32.7693  32.7778
    32.8134  32.8159  32.8958  32.9473  32.9986  33.0053  33.1112  33.1639
    33.2248  33.2252  33.3699  33.3832  33.4310  33.4619  33.5017  33.5075
    33.7266  33.7293  33.8597  33.8622  33.9072  33.9086  34.1089  34.1377
    34.2262  34.2666  34.3257  34.3284  34.3894  34.4037  34.4631  34.4641
    34.6840  34.6842  34.8606  34.8642  34.9794  35.0043  35.1685  35.1728
    35.2655  35.2862  35.3292  35.3309  35.4381  35.4484  35.5717  35.5827
    35.5923  35.5951  35.8351  35.8567  35.9627  35.9666  36.0162  36.0232
    36.0412  36.0439  36.2753  36.2755  36.2940  36.3084  36.4582  36.4727
    36.5633  36.5710  36.7402  36.7537  36.8246  36.8401  36.8773  36.8808
    37.1233  37.1319  37.1962  37.2141  37.2417  37.2429  37.4320  37.4718
    37.5938  37.6023  37.7309  37.7428  37.7611  37.7648  37.9298  37.9383
    38.0737  38.0763  38.1262  38.1425  38.4120  38.4312  38.5487  38.5488
    38.7733  38.7755  38.8116  38.8126  38.9845  38.9861  39.1426  39.1471
    39.1762  39.1818  39.2462  39.2469

          k = 0.3500 0.2021 0.0000 ( 45601 PWs)   bands (ev):

   -27.2772 -27.2769 -27.1995 -27.1995 -24.3311 -24.3304 -24.2483 -24.2483
   -24.2057 -24.2057 -18.4080 -18.4071 -18.0853 -18.0852 -17.8368 -17.8324
   -17.6658 -17.6631 -17.5968 -17.5966 -17.5177 -17.5119 -17.0339 -17.0326
   -13.3204 -13.3172  -8.9643  -8.8769  -6.8958  -6.6562  -6.1330  -6.0385
    -5.6837  -5.6813  -5.3825  -5.3694  -5.1559  -5.1530  -4.9300  -4.9092
    -3.7808  -3.7509  -1.7701  -1.7521  -0.6574  -0.6371   1.5251   1.7785
     2.4653   2.5055   2.9367   2.9849   3.5072   3.5239   3.9925   4.0168
     4.1844   4.1905   4.7794   4.7848   5.3109   5.3773   5.5459   5.5920
     5.5945   5.6529   5.9835   5.9853   6.0344   6.0817   6.5148   6.5284
     6.9458   7.0365   7.3874   7.4398   7.6697   7.6865   7.8458   7.8516
     7.9978   8.0028   8.2372   8.2513   8.3554   8.3567   8.7223   8.7273
     8.7864   8.7874   9.2320   9.2499   9.2754   9.3068   9.3535   9.3580
     9.5920   9.6115   9.9294   9.9407  10.0848  10.0859  10.1099  10.1155
    10.2376  10.2461  10.3302  10.3401  10.8053  10.8213  10.9029  10.9124
    11.0474  11.0526  11.2869  11.2876  11.3287  11.3334  11.8497  11.8634
    12.0950  12.1231  12.3539  12.3590  12.3830  12.3869  12.6988  12.7039
    12.8987  12.9064  13.2431  13.2474  13.4820  13.4832  13.5400  13.5436
    13.6829  13.6969  14.0958  14.0980  14.1480  14.1577  14.3365  14.3387
    14.9183  14.9363  14.9987  15.0011  15.1964  15.2016  15.6933  15.7286
    15.7826  15.7841  15.9974  16.0117  16.0430  16.0757  16.2096  16.2157
    16.3119  16.3321  16.4199  16.4210  16.5136  16.5226  16.5773  16.5918
    16.6839  16.6879  16.8132  16.8158  16.9080  16.9313  16.9595  16.9596
    17.2958  17.3179  17.4224  17.4312  17.8584  17.8627  17.9124  17.9200
    18.1921  18.2004  18.5865  18.6067  18.6778  18.6836  18.7983  18.8057
    18.8293  18.8295  19.0122  19.0160  19.0481  19.0484  19.3042  19.3172
    19.4988  19.5075  19.6611  19.6613  19.7367  19.7427  19.9036  19.9045
    20.1001  20.1082  20.2756  20.2888  20.4375  20.4516  20.6958  20.7459
    20.9660  20.9690  21.0009  21.0025  21.1144  21.1146  21.1935  21.1967
    21.2548  21.2617  21.3271  21.3277  21.5581  21.5582  21.6644  21.6711
    21.7599  21.7622  21.8087  21.8148  21.8989  21.9002  22.0673  22.0692
    22.1301  22.1389  22.2048  22.2156  22.3741  22.4090  22.6138  22.6251
    22.7422  22.7603  22.7992  22.8015  22.9670  22.9967  23.0588  23.0602
    23.4617  23.4741  23.4916  23.4925  23.6994  23.7023  23.7656  23.7754
    24.1300  24.1310  24.1988  24.2009  24.4529  24.4568  24.5002  24.5172
    24.7702  24.7764  24.8140  24.8170  25.0521  25.0545  25.1127  25.1147
    25.2281  25.2306  25.3994  25.4484  25.4562  25.4626  25.8723  25.8724
    25.8906  25.8969  26.1588  26.1609  26.2361  26.2428  26.3223  26.3492
    26.4719  26.4833  26.5385  26.5500  26.6077  26.6163  26.8243  26.8395
    27.0708  27.0746  27.1908  27.1953  27.2536  27.2575  27.5871  27.5996
    27.6044  27.6097  27.7254  27.7285  27.7903  27.7916  27.8873  27.8931
    28.1354  28.1375  28.2370  28.2679  28.4768  28.4914  28.5267  28.5321
    28.7288  28.7421  28.9375  28.9442  29.0570  29.0615  29.2552  29.2694
    29.6126  29.6235  29.8173  29.8190  29.8539  29.8608  29.9592  29.9939
    30.0068  30.0122  30.2055  30.2276  30.3300  30.3302  30.4275  30.4361
    30.6003  30.6198  30.6551  30.6559  30.7258  30.7450  30.8440  30.8467
    30.9247  30.9282  31.0032  31.0036  31.1529  31.1534  31.1745  31.1801
    31.3757  31.3787  31.4949  31.4993  31.5450  31.5576  31.6226  31.6294
    31.7568  31.7787  31.9519  31.9525  32.1001  32.1045  32.2281  32.2433
    32.3011  32.3028  32.3972  32.4087  32.6298  32.6513  32.7768  32.7775
    32.8272  32.8282  32.9598  32.9819  33.0049  33.0135  33.0887  33.1509
    33.3179  33.3341  33.3671  33.4038  33.4329  33.4421  33.4792  33.4811
    33.7389  33.7532  33.9060  33.9084  33.9731  33.9775  34.1833  34.1955
    34.2519  34.2822  34.3220  34.3235  34.3420  34.3460  34.5195  34.5247
    34.7622  34.7622  34.8678  34.8692  34.9650  34.9730  35.2476  35.2512
    35.3418  35.3645  35.3960  35.3978  35.5216  35.5387  35.5954  35.6028
    35.6664  35.6683  35.8664  35.8801  35.9342  35.9351  36.0301  36.0386
    36.1004  36.1115  36.3283  36.3306  36.3512  36.3583  36.5536  36.5653
    36.5823  36.5871  36.7823  36.7901  36.8201  36.8313  36.9505  36.9569
    37.1299  37.1495  37.2353  37.2376  37.3461  37.3533  37.4179  37.4607
    37.5867  37.6006  37.6699  37.6758  37.7995  37.8038  37.9568  37.9745
    37.9932  37.9957  38.2052  38.2076  38.4358  38.4617  38.6049  38.6111
    38.6283  38.6312  38.8053  38.8173  38.8580  38.8608  38.9273  38.9544
    39.1897  39.1954  39.2040  39.2074

          k = 0.3333 0.1925 0.0000 ( 45617 PWs)   bands (ev):

   -27.2772 -27.2769 -27.1995 -27.1995 -24.3312 -24.3305 -24.2483 -24.2482
   -24.2058 -24.2058 -18.4083 -18.4074 -18.0849 -18.0848 -17.8368 -17.8319
   -17.6652 -17.6624 -17.5970 -17.5967 -17.5213 -17.5150 -17.0359 -17.0345
   -13.3458 -13.3424  -8.9138  -8.8168  -6.8890  -6.6291  -6.1176  -6.0187
    -5.6682  -5.6661  -5.3729  -5.3587  -5.1525  -5.1493  -4.9115  -4.8875
    -3.7631  -3.7288  -1.7629  -1.7435  -0.6840  -0.6704   1.4821   1.7521
     2.3808   2.4038   2.8037   2.8517   3.4377   3.4553   3.9186   3.9396
     4.1505   4.1557   4.6912   4.6986   5.2562   5.3020   5.4988   5.5416
     5.6232   5.6726   5.9581   5.9663   6.0998   6.1122   6.5131   6.5213
     7.0294   7.1270   7.4325   7.4394   7.7382   7.7644   7.7709   7.7757
     8.0421   8.0653   8.2914   8.2948   8.3483   8.3512   8.7150   8.7245
     8.7530   8.7624   9.2867   9.2998   9.3874   9.4425   9.5128   9.5148
     9.6114   9.6114   9.9637   9.9769  10.1244  10.1268  10.1441  10.1513
    10.3589  10.3645  10.3812  10.3931  10.8272  10.8414  10.9575  10.9674
    11.0974  11.1012  11.3404  11.3463  11.3875  11.3930  11.9178  11.9204
    12.0580  12.1002  12.3710  12.3734  12.4931  12.4957  12.6660  12.6714
    12.8085  12.8167  13.1535  13.1695  13.4818  13.4838  13.5404  13.5413
    13.6694  13.6799  14.0653  14.0703  14.1970  14.1999  14.3371  14.3469
    14.8494  14.8813  15.0574  15.0592  15.2466  15.2518  15.6183  15.6187
    15.6842  15.6898  15.9298  15.9519  16.0066  16.0066  16.1727  16.2033
    16.2798  16.3029  16.4101  16.4233  16.4883  16.5021  16.5327  16.5505
    16.7107  16.7348  16.7598  16.7677  16.7903  16.8087  16.8689  16.8806
    17.1867  17.2204  17.3804  17.3857  17.8142  17.8156  17.9538  17.9588
    18.1059  18.1218  18.4997  18.5129  18.6538  18.6546  18.6952  18.7096
    18.7915  18.7948  18.9356  18.9410  19.0013  19.0084  19.0618  19.0699
    19.3051  19.3063  19.6175  19.6196  19.6236  19.6323  19.8486  19.8495
    19.9335  19.9494  20.1222  20.1424  20.4249  20.4381  20.7083  20.7579
    20.9821  20.9919  21.0678  21.0826  21.1369  21.1416  21.1820  21.1820
    21.3507  21.3512  21.4361  21.4376  21.5120  21.5139  21.7882  21.7917
    21.9151  21.9198  21.9671  21.9674  21.9919  21.9950  22.1263  22.1380
    22.2771  22.2844  22.3113  22.3177  22.4167  22.4277  22.5338  22.5378
    22.6191  22.6310  22.9405  22.9464  23.0835  23.0844  23.1958  23.2266
    23.4762  23.4964  23.6036  23.6224  23.7244  23.7274  23.7577  23.7627
    24.1170  24.1192  24.3539  24.3547  24.5125  24.5296  24.6032  24.6036
    24.7797  24.7907  24.8583  24.8657  25.0260  25.0363  25.0621  25.0654
    25.1380  25.1426  25.4177  25.4261  25.4864  25.5128  25.8212  25.8649
    25.8984  25.9008  26.0952  26.0978  26.1302  26.1656  26.2195  26.2296
    26.4132  26.4408  26.6180  26.6242  26.6705  26.6839  26.9164  26.9348
    27.1746  27.1799  27.2375  27.2477  27.5103  27.5175  27.5317  27.5363
    27.6608  27.6742  27.8348  27.8471  27.9428  27.9441  28.0068  28.0255
    28.2393  28.2405  28.4101  28.4122  28.4301  28.4634  28.5437  28.5473
    28.9190  28.9195  29.0219  29.0242  29.0879  29.0908  29.2854  29.2918
    29.4587  29.4803  29.7384  29.7385  29.9170  29.9362  29.9805  29.9818
    30.0120  30.0121  30.2985  30.2996  30.3151  30.3172  30.4885  30.5030
    30.5489  30.5600  30.5993  30.6032  30.7400  30.7502  30.8124  30.8131
    30.8492  30.8569  31.0184  31.0195  31.0891  31.0892  31.2137  31.2164
    31.3949  31.3963  31.4163  31.4190  31.5247  31.5432  31.5855  31.5904
    31.7425  31.7809  31.9611  31.9617  32.1909  32.1974  32.2566  32.2750
    32.3454  32.3466  32.4150  32.4190  32.6610  32.6647  32.6794  32.6818
    32.9283  32.9470  32.9767  32.9927  33.0830  33.0898  33.1312  33.1525
    33.2920  33.3418  33.3970  33.4059  33.4766  33.5019  33.5494  33.5502
    33.7547  33.7680  33.9422  33.9546  34.0013  34.0104  34.1695  34.1711
    34.2801  34.2833  34.3171  34.3345  34.3690  34.3756  34.6043  34.6175
    34.7225  34.7234  34.9720  34.9747  34.9929  34.9963  35.3021  35.3098
    35.3635  35.3669  35.4341  35.4369  35.5938  35.6049  35.6867  35.6950
    35.7087  35.7092  35.8978  35.8980  35.9580  35.9625  36.0815  36.0912
    36.1393  36.1552  36.4180  36.4229  36.4406  36.4413  36.5684  36.5863
    36.6325  36.6372  36.8061  36.8119  36.8487  36.8537  36.9854  36.9887
    37.1333  37.1465  37.2607  37.2798  37.3537  37.3763  37.4057  37.4175
    37.5200  37.5212  37.6460  37.6549  37.8129  37.8251  37.9664  37.9670
    38.0372  38.0394  38.2760  38.2765  38.4119  38.4265  38.4762  38.4790
    38.6198  38.6268  38.7058  38.7112  38.7764  38.7792  38.9501  38.9726
    39.0865  39.0945  39.1778  39.1845

          k = 0.3167 0.1828 0.0000 ( 45591 PWs)   bands (ev):

   -27.2772 -27.2769 -27.1996 -27.1996 -24.3313 -24.3305 -24.2482 -24.2482
   -24.2059 -24.2059 -18.4087 -18.4077 -18.0846 -18.0845 -17.8367 -17.8315
   -17.6645 -17.6616 -17.5971 -17.5969 -17.5251 -17.5185 -17.0379 -17.0365
   -13.3722 -13.3686  -8.8611  -8.7551  -6.8786  -6.6010  -6.0993  -5.9979
    -5.6516  -5.6497  -5.3624  -5.3473  -5.1488  -5.1454  -4.8910  -4.8634
    -3.7437  -3.7048  -1.7578  -1.7373  -0.7104  -0.7056   1.4124   1.6773
     2.3213   2.3442   2.6765   2.7235   3.3607   3.3790   3.8455   3.8633
     4.1253   4.1282   4.6129   4.6210   5.1887   5.2236   5.4604   5.5014
     5.6305   5.6442   5.9223   5.9842   6.1613   6.1675   6.5210   6.5276
     7.0677   7.1465   7.4537   7.4622   7.6743   7.6802   7.8046   7.8425
     8.1159   8.1534   8.2913   8.3009   8.3837   8.3913   8.6857   8.6934
     8.7462   8.7512   9.3124   9.3433   9.4981   9.5407   9.6318   9.6735
     9.7169   9.7535   9.9924  10.0082  10.1764  10.1772  10.1991  10.2075
    10.4285  10.4360  10.5118  10.5211  10.8480  10.8608  11.0058  11.0164
    11.1466  11.1497  11.3836  11.3975  11.4453  11.4518  11.9530  11.9569
    12.0791  12.1260  12.3497  12.3620  12.5986  12.5999  12.6424  12.6470
    12.7339  12.7406  13.0850  13.1078  13.4816  13.4843  13.5311  13.5320
    13.6639  13.6775  13.9607  13.9787  14.3002  14.3003  14.3770  14.3907
    14.7779  14.8174  15.1190  15.1200  15.2938  15.3068  15.4559  15.4572
    15.5538  15.5634  15.8009  15.8041  15.8979  15.9153  16.1156  16.1349
    16.1916  16.2129  16.3979  16.4044  16.4763  16.4846  16.5825  16.5831
    16.6332  16.6519  16.7419  16.7561  16.8001  16.8175  16.9077  16.9433
    17.1353  17.1764  17.2842  17.2862  17.8405  17.8419  17.9058  17.9100
    18.1097  18.1427  18.3569  18.3590  18.4511  18.4614  18.6542  18.6621
    18.7376  18.7411  18.7720  18.7807  18.8684  18.8754  19.0426  19.0450
    19.2125  19.2281  19.4972  19.4992  19.5512  19.5522  19.7677  19.7742
    19.8394  19.8404  20.0508  20.0637  20.3112  20.3318  20.7129  20.7552
    20.8651  20.8667  21.1079  21.1115  21.1368  21.1481  21.1824  21.1838
    21.3760  21.3814  21.5301  21.5310  21.5990  21.6037  21.8477  21.8529
    21.9951  21.9963  22.0607  22.0913  22.1216  22.1287  22.1894  22.1898
    22.3124  22.3139  22.4371  22.4406  22.5031  22.5035  22.6350  22.6510
    22.7060  22.7156  23.1296  23.1359  23.1481  23.1490  23.2437  23.2653
    23.4708  23.4843  23.6132  23.6201  23.8074  23.8208  23.9694  23.9703
    24.0872  24.0905  24.3464  24.3741  24.5882  24.5971  24.6317  24.6402
    24.7951  24.8117  24.9406  24.9459  25.0104  25.0198  25.0716  25.0751
    25.0994  25.1190  25.3503  25.3560  25.5487  25.5610  25.7363  25.7893
    25.8438  25.8478  26.0430  26.0532  26.1099  26.1105  26.1752  26.1847
    26.3652  26.4002  26.6456  26.6577  26.7804  26.7922  26.9786  26.9929
    27.1317  27.1334  27.3770  27.4039  27.4940  27.5015  27.6593  27.6716
    27.7249  27.7286  27.9533  27.9592  28.0763  28.0926  28.1217  28.1224
    28.3530  28.3853  28.4293  28.4333  28.5652  28.5662  28.6910  28.6957
    29.0601  29.0748  29.1338  29.1360  29.2310  29.2549  29.2979  29.2986
    29.3510  29.3749  29.6411  29.6414  29.8715  29.8786  29.9654  29.9670
    30.0822  30.1078  30.2361  30.2383  30.3479  30.3530  30.4516  30.4649
    30.5467  30.5516  30.6009  30.6042  30.7785  30.7793  30.7956  30.8035
    30.8514  30.8710  31.0370  31.0370  31.0514  31.0531  31.2116  31.2165
    31.3521  31.3682  31.3922  31.3940  31.5643  31.5725  31.5932  31.5949
    31.7354  31.7825  32.0234  32.0236  32.1396  32.1753  32.3092  32.3215
    32.3942  32.3980  32.4726  32.4859  32.5587  32.5629  32.6553  32.6624
    32.8693  32.8876  32.9742  33.0177  33.0760  33.0773  33.2563  33.2674
    33.3578  33.4034  33.4293  33.4387  33.5704  33.5974  33.6805  33.6829
    33.8368  33.8421  33.9102  33.9130  34.0165  34.0217  34.0843  34.0849
    34.3647  34.3652  34.4335  34.4462  34.4530  34.4555  34.5774  34.5906
    34.6842  34.6864  35.0310  35.0393  35.0891  35.0903  35.3612  35.3621
    35.3999  35.4044  35.4758  35.4758  35.5633  35.5739  35.7137  35.7137
    35.8430  35.8460  35.8838  35.8844  36.0709  36.0832  36.1427  36.1495
    36.1698  36.1813  36.4276  36.4436  36.5337  36.5504  36.5702  36.5953
    36.6952  36.6959  36.8317  36.8525  36.8992  36.9136  36.9243  36.9243
    37.0753  37.1005  37.1807  37.1877  37.2914  37.2923  37.4019  37.4118
    37.5829  37.5869  37.6647  37.6679  37.7864  37.8001  38.0155  38.0165
    38.0801  38.1044  38.1860  38.1864  38.3429  38.3452  38.3980  38.4030
    38.5723  38.5955  38.6436  38.6588  38.7826  38.7861  38.8423  38.8459
    38.9915  38.9936  39.1387  39.1466

          k = 0.3000 0.1732 0.0000 ( 45621 PWs)   bands (ev):

   -27.2773 -27.2769 -27.1996 -27.1996 -24.3314 -24.3306 -24.2482 -24.2481
   -24.2061 -24.2060 -18.4091 -18.4080 -18.0842 -18.0841 -17.8366 -17.8311
   -17.6637 -17.6608 -17.5972 -17.5972 -17.5292 -17.5222 -17.0401 -17.0386
   -13.3991 -13.3953  -8.8072  -8.6928  -6.8641  -6.5718  -6.0779  -5.9760
    -5.6340  -5.6325  -5.3512  -5.3351  -5.1450  -5.1412  -4.8686  -4.8369
    -3.7229  -3.6789  -1.7562  -1.7345  -0.7423  -0.7364   1.3194   1.5604
     2.2759   2.3095   2.5692   2.6102   3.2787   3.2977   3.7745   3.7896
     4.1005   4.1013   4.5480   4.5556   5.1153   5.1436   5.4318   5.4706
     5.5882   5.6027   5.9182   6.0258   6.2015   6.2056   6.5449   6.5534
     7.0438   7.0786   7.5023   7.5123   7.5738   7.5810   7.8643   7.9061
     8.2015   8.2454   8.2839   8.2966   8.4291   8.4507   8.6545   8.6586
     8.7430   8.7494   9.3516   9.3909   9.6423   9.6508   9.7408   9.7685
     9.8623   9.8902  10.0230  10.0429  10.2414  10.2415  10.2775  10.2883
    10.5297  10.5341  10.6484  10.6559  10.8668  10.8783  11.0491  11.0608
    11.1917  11.1956  11.4296  11.4517  11.5030  11.5111  11.9610  11.9624
    12.1499  12.1725  12.2784  12.2804  12.6133  12.6201  12.6820  12.6834
    12.7604  12.7606  13.0406  13.0616  13.4788  13.4818  13.5132  13.5158
    13.6395  13.6599  13.8813  13.9086  14.3989  14.4020  14.4450  14.4585
    14.7110  14.7521  15.1685  15.1701  15.3078  15.3146  15.3317  15.3574
    15.3885  15.3989  15.6000  15.6012  15.8558  15.8564  15.9921  16.0069
    16.1515  16.1603  16.3216  16.3274  16.3933  16.3973  16.4214  16.4222
    16.6592  16.6886  16.7633  16.7800  16.8324  16.8518  17.0805  17.1096
    17.1467  17.1474  17.2140  17.2165  17.7734  17.7946  17.9119  17.9162
    18.0968  18.0988  18.1532  18.2176  18.3391  18.3470  18.4946  18.5039
    18.6368  18.6440  18.6706  18.6832  18.8341  18.8489  18.8932  18.8971
    19.2448  19.2491  19.4074  19.4255  19.4606  19.4637  19.6515  19.6531
    19.8619  19.8630  20.0085  20.0176  20.1494  20.1742  20.6282  20.6543
    20.8039  20.8063  21.0346  21.0354  21.1350  21.1365  21.2335  21.2397
    21.2629  21.2724  21.6650  21.6655  21.6821  21.6895  21.8294  21.8583
    21.9546  21.9665  22.1540  22.1542  22.2262  22.2341  22.2610  22.2631
    22.4213  22.4374  22.6042  22.6195  22.6798  22.6858  22.8126  22.8153
    22.8433  22.8471  23.1414  23.1483  23.2811  23.3008  23.3022  23.3299
    23.4466  23.4661  23.7664  23.7889  23.9064  23.9069  24.0437  24.0482
    24.1940  24.1949  24.3071  24.3448  24.5250  24.5536  24.5608  24.5671
    24.8056  24.8130  24.9747  24.9785  25.0498  25.0527  25.1513  25.1633
    25.2184  25.2240  25.3342  25.3426  25.4956  25.5122  25.6748  25.7006
    25.7546  25.7608  25.9154  25.9370  26.1432  26.1564  26.2494  26.2542
    26.4066  26.4199  26.6263  26.6301  26.8396  26.8475  27.0774  27.0821
    27.0901  27.0949  27.4279  27.4436  27.5140  27.5215  27.7326  27.7619
    27.8085  27.8203  27.8982  27.9109  28.1688  28.2207  28.2799  28.2814
    28.4519  28.4830  28.6052  28.6053  28.6468  28.6480  28.8747  28.8871
    29.1250  29.1451  29.1951  29.1980  29.2571  29.2634  29.4270  29.4272
    29.5350  29.5351  29.6495  29.6517  29.8586  29.8616  29.9489  29.9515
    30.0805  30.1086  30.1681  30.1709  30.2501  30.2638  30.4526  30.4552
    30.5158  30.5225  30.6316  30.6357  30.7114  30.7126  30.7552  30.7703
    31.0027  31.0038  31.0098  31.0118  31.0781  31.0805  31.2201  31.2213
    31.3291  31.3303  31.4402  31.4528  31.5744  31.5850  31.5996  31.6029
    31.7392  31.7526  32.0875  32.0894  32.1787  32.2340  32.2770  32.2805
    32.3582  32.3622  32.5450  32.5560  32.5675  32.5799  32.6340  32.6348
    32.7941  32.8158  32.9217  32.9629  33.0585  33.0667  33.3316  33.3481
    33.4191  33.4261  33.5202  33.5481  33.7102  33.7432  33.7648  33.7743
    33.8788  33.8814  33.9909  33.9922  34.0467  34.0480  34.0710  34.0769
    34.3782  34.3863  34.4902  34.4918  34.5936  34.5942  34.6179  34.6345
    34.7194  34.7227  35.0708  35.0801  35.1221  35.1239  35.3632  35.3682
    35.4334  35.4457  35.5432  35.5440  35.5893  35.6087  35.6961  35.6981
    35.8935  35.8942  35.9601  35.9608  36.0429  36.0834  36.1972  36.1997
    36.2602  36.2651  36.4198  36.4282  36.5445  36.5508  36.5920  36.5984
    36.7292  36.7540  36.7626  36.7699  36.8755  36.8792  36.9131  36.9166
    37.0384  37.0562  37.0790  37.0808  37.3364  37.3758  37.4146  37.4443
    37.5580  37.5613  37.6748  37.6856  37.8178  37.8302  37.9223  37.9277
    38.0424  38.0448  38.1056  38.1393  38.2517  38.2590  38.4190  38.4226
    38.4292  38.4310  38.5488  38.5610  38.6532  38.6753  38.7507  38.7629
    38.7821  38.7823  38.9477  38.9878

          k = 0.2833 0.1636 0.0000 ( 45655 PWs)   bands (ev):

   -27.2773 -27.2769 -27.1997 -27.1997 -24.3315 -24.3306 -24.2481 -24.2481
   -24.2062 -24.2061 -18.4094 -18.4083 -18.0838 -18.0837 -17.8364 -17.8306
   -17.6628 -17.6598 -17.5975 -17.5973 -17.5333 -17.5262 -17.0424 -17.0408
   -13.4262 -13.4224  -8.7529  -8.6311  -6.8453  -6.5421  -6.0530  -5.9532
    -5.6155  -5.6145  -5.3393  -5.3224  -5.1409  -5.1368  -4.8440  -4.8077
    -3.7009  -3.6513  -1.7593  -1.7364  -0.7800  -0.7617   1.2119   1.4205
     2.2187   2.2498   2.5156   2.5326   3.1936   3.2138   3.7067   3.7196
     4.0663   4.0727   4.4990   4.5048   5.0393   5.0634   5.4119   5.4472
     5.5270   5.5529   5.9341   6.0690   6.2195   6.2201   6.5831   6.5967
     6.9695   6.9751   7.4669   7.4718   7.5565   7.5800   7.9247   7.9641
     8.2583   8.2746   8.3090   8.3191   8.4927   8.5160   8.6267   8.6296
     8.7741   8.7855   9.3860   9.4236   9.7529   9.7878   9.8817   9.8897
     9.9525   9.9718  10.0662  10.0922  10.3128  10.3130  10.3633  10.3724
    10.6912  10.6924  10.7731  10.7750  10.8894  10.9007  11.0901  11.1038
    11.2312  11.2368  11.4900  11.5167  11.5607  11.5709  11.9389  11.9412
    12.1398  12.1621  12.2528  12.2999  12.5568  12.5635  12.7579  12.7610
    12.8669  12.8672  13.0097  13.0206  13.4591  13.4607  13.5033  13.5066
    13.5912  13.6108  13.8555  13.8840  14.4861  14.4918  14.5215  14.5372
    14.6652  14.7001  15.1113  15.1179  15.1725  15.1831  15.2926  15.2956
    15.3911  15.3985  15.4133  15.4174  15.7313  15.7356  15.9396  15.9404
    16.0618  16.1033  16.2001  16.2049  16.2458  16.2707  16.3484  16.3499
    16.6895  16.7100  16.7765  16.7978  16.8777  16.8910  16.9896  16.9909
    17.1062  17.1072  17.3698  17.3810  17.6873  17.7319  17.8706  17.8857
    17.9715  17.9762  18.0563  18.1215  18.2010  18.2047  18.4227  18.4449
    18.5570  18.5615  18.6168  18.6325  18.7800  18.7886  18.8596  18.8650
    19.1279  19.1426  19.3489  19.3589  19.3917  19.3926  19.6395  19.6522
    19.9013  19.9036  19.9501  19.9688  20.0241  20.0384  20.4762  20.4914
    20.7824  20.7864  20.9519  20.9519  21.0780  21.1016  21.1277  21.1380
    21.3090  21.3103  21.5934  21.6084  21.7112  21.7136  21.8166  21.8541
    21.9663  21.9732  22.2530  22.2601  22.3455  22.3576  22.4029  22.4037
    22.4892  22.5097  22.7928  22.8208  22.8397  22.8422  22.9400  22.9457
    23.0045  23.0140  23.0511  23.0563  23.3871  23.4237  23.5305  23.5317
    23.5818  23.5869  23.8463  23.8601  23.9965  23.9986  24.0675  24.0761
    24.2330  24.2441  24.2825  24.2875  24.5046  24.5170  24.5560  24.5667
    24.7526  24.7913  25.0037  25.0052  25.0538  25.0664  25.1529  25.1569
    25.3435  25.3455  25.4535  25.4597  25.4781  25.4841  25.6578  25.6703
    25.7222  25.7278  25.8095  25.8127  26.1230  26.1417  26.3146  26.3199
    26.4357  26.4456  26.7108  26.7145  26.8500  26.8516  27.0637  27.0655
    27.2062  27.2150  27.3626  27.3693  27.5775  27.5841  27.7635  27.7948
    27.8025  27.8498  28.0060  28.0269  28.1841  28.2146  28.3678  28.3711
    28.4901  28.5368  28.6970  28.6978  28.8043  28.8164  29.0994  29.1047
    29.2097  29.2289  29.2637  29.2663  29.3636  29.3649  29.4372  29.4376
    29.6289  29.6291  29.8359  29.8379  29.9173  29.9210  30.0501  30.0516
    30.0972  30.0981  30.1286  30.1289  30.1500  30.1530  30.4158  30.4197
    30.5009  30.5086  30.6429  30.6443  30.6542  30.6553  30.7287  30.7573
    30.9458  30.9506  30.9785  30.9792  31.1460  31.1650  31.2565  31.2838
    31.3069  31.3098  31.4899  31.4971  31.5908  31.5924  31.6323  31.6333
    31.7880  31.8190  32.0052  32.0058  32.2008  32.2124  32.2612  32.3376
    32.3587  32.3941  32.4663  32.4777  32.6084  32.6127  32.7524  32.7733
    32.7946  32.8014  32.8961  32.9021  33.1105  33.1179  33.3742  33.3766
    33.4350  33.4435  33.6045  33.6229  33.7421  33.7506  33.8775  33.8835
    33.9567  33.9574  34.0353  34.0364  34.0981  34.1027  34.1791  34.1854
    34.3983  34.3998  34.5259  34.5275  34.7303  34.7319  34.7828  34.7956
    34.8173  34.8194  35.1120  35.1148  35.1358  35.1416  35.3043  35.3244
    35.3718  35.3847  35.6046  35.6047  35.6497  35.6600  35.6847  35.6950
    35.9260  35.9373  35.9390  35.9717  36.0692  36.0694  36.2200  36.2272
    36.3317  36.3396  36.3763  36.3796  36.4031  36.4066  36.5499  36.5515
    36.6409  36.6497  36.7041  36.7067  36.8789  36.8809  36.9948  36.9954
    37.0736  37.0821  37.1570  37.1575  37.2981  37.2990  37.4725  37.4738
    37.4984  37.5163  37.6261  37.6330  37.7006  37.7116  37.8029  37.8044
    38.0223  38.0381  38.0403  38.0559  38.1381  38.1414  38.2253  38.2267
    38.2311  38.2357  38.3976  38.4094  38.5844  38.6018  38.6332  38.6412
    38.7257  38.7302  38.7580  38.7699

          k = 0.2667 0.1540 0.0000 ( 45645 PWs)   bands (ev):

   -27.2773 -27.2770 -27.1997 -27.1997 -24.3315 -24.3307 -24.2481 -24.2481
   -24.2063 -24.2062 -18.4098 -18.4087 -18.0833 -18.0833 -17.8363 -17.8302
   -17.6618 -17.6588 -17.5978 -17.5974 -17.5376 -17.5304 -17.0446 -17.0430
   -13.4532 -13.4493  -8.6990  -8.5711  -6.8220  -6.5121  -6.0247  -5.9293
    -5.5963  -5.5958  -5.3269  -5.3092  -5.1366  -5.1322  -4.8174  -4.7759
    -3.6781  -3.6223  -1.7688  -1.7442  -0.8184  -0.7866   1.0991   1.2737
     2.1272   2.1435   2.5061   2.5242   3.1070   3.1290   3.6429   3.6540
     4.0227   4.0363   4.4656   4.4692   4.9622   4.9836   5.3994   5.4252
     5.4753   5.4980   5.9531   6.1000   6.2150   6.2247   6.6137   6.6314
     6.8690   6.9038   7.3600   7.3662   7.5982   7.6278   7.9830   8.0194
     8.2611   8.2651   8.3467   8.3617   8.5860   8.5971   8.6087   8.6131
     8.8563   8.8682   9.4056   9.4388   9.8288   9.8736   9.9939  10.0015
    10.0539  10.0619  10.1487  10.1781  10.3877  10.3877  10.4367  10.4427
    10.8525  10.8568  10.8846  10.8941  10.9544  10.9566  11.1356  11.1553
    11.2685  11.2745  11.5500  11.5679  11.6197  11.6284  11.8822  11.8934
    12.1198  12.1235  12.3384  12.3789  12.5070  12.5115  12.7981  12.8136
    12.9683  12.9739  13.0158  13.0197  13.4120  13.4212  13.5087  13.5122
    13.5469  13.5541  13.8708  13.8960  14.5322  14.5483  14.5605  14.5769
    14.6895  14.7085  14.9846  14.9885  15.0076  15.0160  15.2032  15.2042
    15.3519  15.3688  15.3850  15.3875  15.6545  15.6560  15.8518  15.8553
    15.9621  15.9929  16.0507  16.0541  16.1829  16.2067  16.3014  16.3030
    16.7129  16.7247  16.7784  16.8015  16.8166  16.8170  16.9464  16.9555
    17.0762  17.0767  17.2867  17.2928  17.5652  17.5687  17.8572  17.8626
    17.9685  17.9728  17.9854  17.9866  18.0781  18.0916  18.3250  18.3510
    18.5202  18.5227  18.6769  18.6792  18.7951  18.7986  18.8648  18.8778
    18.9964  19.0124  19.2475  19.2531  19.2952  19.2979  19.6554  19.6832
    19.8881  19.9106  19.9530  19.9544  19.9831  19.9889  20.3597  20.3716
    20.6959  20.7021  20.8717  20.8726  20.9606  20.9750  21.0854  21.0865
    21.3148  21.3251  21.5329  21.5449  21.6883  21.6919  21.7458  21.7695
    22.0157  22.0172  22.3579  22.3706  22.4471  22.4557  22.5038  22.5213
    22.5269  22.5383  22.8807  22.8858  22.9227  22.9284  23.0441  23.0780
    23.1577  23.1589  23.1872  23.1898  23.5652  23.5708  23.6675  23.7166
    23.7483  23.7651  23.9172  23.9365  23.9657  23.9774  24.0968  24.1084
    24.1566  24.1655  24.3032  24.3081  24.5262  24.5329  24.6179  24.6194
[...]
    10.4499  10.4642  10.5655  10.5854  10.9304  10.9475  11.2016  11.2049
    11.2828  11.3258  11.4935  11.5358  11.7387  11.7485  12.0480  12.0823
    12.2777  12.3945  12.5386  12.5583  12.7164  12.7355  12.9665  12.9963
    13.1899  13.2060  13.8301  13.8344  13.9178  13.9509  13.9845  14.0093
    14.1127  14.1277  14.2759  14.2924  14.3631  14.4172  14.4766  14.4879
    14.6314  14.6366  14.8202  14.8456  14.8998  14.9057  14.9831  15.0117
    15.1922  15.2058  15.3527  15.3644  15.5424  15.5635  15.8803  15.8917
    16.2034  16.2174  16.2524  16.2538  16.3818  16.3878  16.4676  16.4733
    16.6592  16.6796  16.7677  16.7784  16.8094  16.8204  16.9947  17.0159
    17.2925  17.3084  17.5684  17.6247  17.7322  17.7809  17.7877  17.8178
    17.9327  17.9503  17.9936  18.0178  18.1592  18.1665  18.3020  18.3103
    18.7964  18.8652  18.9505  18.9586  19.0595  19.0813  19.2668  19.3295
    19.6708  19.6778  19.7342  19.7590  19.8599  19.8744  19.9362  19.9698
    20.1941  20.2016  20.5590  20.5861  20.6804  20.6848  20.9294  20.9421
    21.0591  21.0595  21.3387  21.3426  21.4527  21.4586  21.6623  21.6703
    21.7071  21.7337  21.8669  21.8718  21.9850  21.9975  22.1686  22.1774
    22.4536  22.4606  22.5710  22.5847  22.6645  22.6725  22.7700  22.7851
    22.8148  22.8214  22.9506  22.9558  23.2036  23.2186  23.2798  23.2812
    23.4366  23.4584  23.5859  23.6015  23.7670  23.7710  23.9268  23.9319
    24.0764  24.0825  24.0944  24.1020  24.2267  24.2353  24.3364  24.3379
    24.4688  24.4710  24.5583  24.5639  24.6372  24.6405  24.7327  24.7428
    24.8072  24.8106  24.8309  24.8368  24.9762  24.9820  25.0774  25.0791
    25.1711  25.1776  25.3091  25.3142  25.3566  25.3602  25.4920  25.4991
    25.5651  25.5692  25.7178  25.7236  25.7440  25.7558  25.9743  25.9771
    26.0178  26.0203  26.1111  26.1183  26.2795  26.2977  26.3909  26.3951
    26.4447  26.4559  26.5783  26.5853  26.7669  26.7806  26.9100  26.9543
    26.9739  26.9793  27.0612  27.0984  27.1926  27.2300  27.3378  27.3497
    27.4284  27.4465  27.5462  27.5642  27.6986  27.7302  27.7584  27.7618
    27.8863  27.8956  27.9557  27.9714  28.2068  28.2140  28.3139  28.3473
    28.4273  28.4932  28.5515  28.5990  28.7565  28.7830  28.8998  28.9139
    28.9244  28.9397  29.1308  29.1862  29.1939  29.2164  29.3221  29.3447
    29.3780  29.4150  29.4876  29.5482  29.8011  29.8042  29.8321  29.8422
    29.9013  29.9644  30.2036  30.3184  30.4001  30.4586  30.6162  30.6480
    30.7811  30.7890  30.9842  31.0076  31.0382  31.0658  31.2416  31.2703
    31.3541  31.3589  31.3830  31.4079  31.5611  31.5898  31.7223  31.7682
    31.8814  31.9208  32.0855  32.1055  32.3321  32.3667  32.4517  32.4777
    32.5370  32.6230  32.7647  32.7728  32.8060  32.8651  32.9837  33.0027
    33.1037  33.1492  33.1801  33.2063  33.3746  33.3950  33.5212  33.5439
    33.6094  33.6222  33.7107  33.7345  33.9601  33.9669  34.1341  34.1417
    34.3073  34.3471  34.3942  34.3975  34.6733  34.6772  34.7692  34.8480
    34.9753  34.9789  35.0891  35.1009  35.2629  35.2692  35.4029  35.4341
    35.5218  35.5512  35.7279  35.7403  35.7535  35.7683  36.0324  36.0455
    36.0959  36.1149  36.1559  36.2162  36.4146  36.4364  36.5697  36.5870
    36.9434  36.9457  37.1493  37.1594  37.2421  37.2595  37.3528  37.3964
    37.4363  37.4395  37.5487  37.5598  37.6369  37.6679  37.7891  37.7937
    37.8903  37.9048  38.0405  38.0525  38.2463  38.2664  38.4696  38.4719
    38.6486  38.6762  38.7134  38.7509  38.7613  38.7828  38.8878  38.9177
    38.9782  39.0014  39.1433  39.1700  39.3322  39.3410  39.4229  39.4246
    39.5251  39.5485  39.6735  39.6887  39.8753  39.8880  39.9132  39.9254
    40.0402  40.0653  40.1096  40.1135

          k = 0.6222 0.0000 0.0000 ( 45592 PWs)   bands (ev):

   -27.2770 -27.2767 -27.1996 -27.1987 -24.3305 -24.3299 -24.2491 -24.2478
   -24.2055 -24.2048 -18.4056 -18.4050 -18.1053 -18.0678 -17.8474 -17.8273
   -17.6890 -17.6353 -17.6171 -17.5853 -17.4923 -17.4913 -17.0197 -17.0187
   -13.1181 -13.1176  -9.3524  -9.1533  -6.9980  -6.7366  -6.3244  -6.1839
    -6.1075  -5.9574  -5.3693  -5.3459  -5.3309  -5.2807  -4.9832  -4.9078
    -4.5040  -4.1649  -0.9494  -0.5037   0.4028   1.1299   1.4824   1.5301
     1.9329   2.0705   2.7039   2.8994   3.5241   3.5946   4.8280   4.9204
     5.0087   5.0138   5.2224   5.2474   5.4663   5.4789   5.8027   5.8253
     5.9375   5.9427   6.2099   6.2218   6.4919   6.6168   6.6925   6.7341
     6.7478   6.8320   6.9776   7.0198   7.1562   7.1602   7.2751   7.2899
     7.3669   7.3701   7.5446   7.5688   7.6008   7.6409   7.9077   7.9300
     7.9676   8.1796   8.6392   8.6429   8.8133   8.8759   9.2544   9.2874
     9.3565   9.3717   9.7965   9.8380   9.9017   9.9326  10.1405  10.1583
    10.4904  10.5320  10.5951  10.5974  10.8697  10.9204  11.2270  11.2341
    11.2957  11.3260  11.4536  11.4783  11.6606  11.6662  12.1424  12.1501
    12.3978  12.5397  12.5977  12.6069  12.7570  12.7675  12.8797  12.9131
    13.1662  13.1891  13.7606  13.8136  13.9086  13.9416  13.9780  13.9903
    14.1295  14.1442  14.2226  14.2860  14.3296  14.3438  14.4588  14.4648
    14.6927  14.6992  14.8961  14.9195  14.9474  14.9642  15.0864  15.1019
    15.2846  15.3013  15.3207  15.3400  15.4981  15.5058  15.8064  15.8147
    16.0430  16.0516  16.1496  16.1692  16.4554  16.4612  16.4931  16.5146
    16.6760  16.6816  16.8000  16.8134  16.8826  16.8868  16.9545  16.9691
    17.3518  17.3723  17.5050  17.5351  17.6819  17.7816  17.8009  17.8330
    17.8920  17.9336  18.0179  18.0280  18.1280  18.1538  18.2320  18.2339
    18.7099  18.7696  18.8329  18.8376  19.0061  19.0198  19.2437  19.2968
    19.6001  19.6066  19.7417  19.7574  19.8258  19.8440  19.9475  19.9682
    20.0893  20.1078  20.5532  20.5634  20.7299  20.7441  21.1000  21.1011
    21.1578  21.1664  21.4025  21.4096  21.5382  21.5436  21.6249  21.6308
    21.6417  21.6613  21.8228  21.8413  22.1630  22.1692  22.2879  22.2993
    22.3911  22.4050  22.5070  22.5181  22.8025  22.8066  22.9545  22.9552
    23.0630  23.0696  23.1228  23.1286  23.3348  23.3429  23.4174  23.4339
    23.5544  23.5658  23.6217  23.6265  23.8297  23.8331  23.9579  23.9592
    24.0408  24.0479  24.1637  24.1710  24.2316  24.2440  24.2852  24.2865
    24.4008  24.4042  24.4565  24.4626  24.5358  24.5378  24.6771  24.6849
    24.7755  24.7785  24.8356  24.8528  24.9871  24.9912  25.0606  25.0632
    25.1129  25.1182  25.1859  25.1923  25.3653  25.3745  25.4163  25.4209
    25.5655  25.5683  25.6215  25.6280  25.7090  25.7240  25.9238  25.9290
    25.9530  25.9596  26.1153  26.1385  26.2214  26.2238  26.3811  26.4023
    26.4625  26.4767  26.6079  26.6095  26.6343  26.6399  26.7377  26.7697
    26.8014  26.8181  26.9676  26.9941  27.2461  27.2663  27.3617  27.3691
    27.4397  27.4832  27.6001  27.6214  27.7128  27.7324  27.7664  27.7748
    27.8316  27.8436  27.9931  27.9981  28.2473  28.3121  28.3230  28.3825
    28.4561  28.4800  28.5209  28.5958  28.6532  28.7321  28.8958  28.9613
    29.0105  29.0346  29.0991  29.1079  29.1811  29.2023  29.2160  29.2341
    29.3558  29.3829  29.4433  29.4554  29.7599  29.7615  29.7894  29.8162
    30.0537  30.0970  30.1633  30.2322  30.4332  30.5016  30.5180  30.5387
    30.6599  30.6890  30.9284  30.9342  30.9542  30.9775  31.1054  31.1304
    31.2661  31.3071  31.5604  31.5959  31.5986  31.6163  31.7090  31.7185
    31.9308  31.9894  32.1427  32.1555  32.3330  32.3755  32.3855  32.4240
    32.5750  32.5894  32.6874  32.6976  32.7940  32.8087  32.9770  32.9920
    33.0497  33.0572  33.1605  33.1704  33.3506  33.3542  33.4158  33.4561
    33.6449  33.6641  33.8312  33.8446  34.0389  34.0409  34.1206  34.1314
    34.2560  34.2868  34.5225  34.5347  34.6053  34.6092  34.7717  34.8328
    34.8728  34.8925  34.9611  34.9636  35.2616  35.2880  35.3133  35.3292
    35.4357  35.4626  35.6757  35.7041  35.7893  35.7988  36.0077  36.0251
    36.2097  36.2601  36.3823  36.3978  36.4363  36.5154  36.5661  36.5889
    36.8879  36.9064  37.0206  37.0331  37.1730  37.1987  37.3748  37.4389
    37.4620  37.4829  37.5773  37.6032  37.7182  37.7570  37.7814  37.7983
    37.9811  38.0181  38.1066  38.1159  38.4532  38.4607  38.5252  38.5606
    38.5940  38.6190  38.7684  38.7729  38.8145  38.8161  38.8931  38.9125
    39.0475  39.0969  39.2280  39.2354  39.2847  39.2858  39.4090  39.4265
    39.5141  39.5389  39.7232  39.7497  39.7851  39.7906  39.9074  39.9148
    39.9867  40.0188  40.1888  40.2011

          k = 0.6444 0.0000 0.0000 ( 45608 PWs)   bands (ev):

   -27.2770 -27.2767 -27.1996 -27.1987 -24.3305 -24.3299 -24.2491 -24.2478
   -24.2055 -24.2047 -18.4056 -18.4050 -18.1056 -18.0676 -17.8476 -17.8272
   -17.6893 -17.6347 -17.6176 -17.5852 -17.4916 -17.4911 -17.0194 -17.0185
   -13.1139 -13.1137  -9.3594  -9.1577  -7.0042  -6.7352  -6.3279  -6.1888
    -6.1147  -5.9614  -5.3684  -5.3494  -5.3319  -5.2825  -4.9839  -4.9070
    -4.5127  -4.1742  -0.9347  -0.4999   0.4562   1.2132   1.5216   1.5507
     1.9113   2.0523   2.6796   2.8840   3.4392   3.5069   4.8617   4.9583
     5.0583   5.0691   5.2503   5.2600   5.4318   5.4436   5.8169   5.8222
     5.9088   5.9138   6.3143   6.3452   6.4927   6.5588   6.6261   6.6614
     6.6825   6.8433   7.0584   7.1504   7.1704   7.1830   7.2701   7.2814
     7.3244   7.3319   7.4349   7.4596   7.6786   7.6969   7.8278   7.8417
     7.9356   8.1863   8.6412   8.6457   8.8361   8.9342   9.2785   9.3162
     9.3484   9.3583   9.8039   9.8236   9.8973   9.9298  10.1364  10.1495
    10.4855  10.5785  10.6245  10.6400  10.8067  10.8970  11.2683  11.2800
    11.3166  11.3366  11.4044  11.4177  11.5961  11.5991  12.1685  12.1719
    12.4753  12.5952  12.6276  12.6338  12.7151  12.7261  13.0034  13.0150
    13.1553  13.1818  13.6334  13.7161  13.9625  13.9799  14.0112  14.0287
    14.0829  14.1114  14.1624  14.2066  14.2765  14.2948  14.5260  14.5292
    14.7378  14.7429  14.8816  14.8932  15.0633  15.0903  15.1723  15.1814
    15.2933  15.3072  15.3775  15.3998  15.4803  15.4900  15.7367  15.7442
    15.8305  15.8373  15.9978  16.0016  16.4501  16.4523  16.5884  16.6027
    16.7125  16.7171  16.8432  16.8628  16.9480  16.9547  17.0573  17.0895
    17.3509  17.3577  17.4578  17.4793  17.5723  17.5785  17.7020  17.7799
    17.8687  17.8714  18.0955  18.1225  18.1844  18.2052  18.3207  18.3300
    18.6491  18.6715  18.7513  18.7537  18.9875  18.9970  19.1269  19.1560
    19.5501  19.5786  19.6949  19.7134  19.8172  19.8383  19.9779  19.9817
    20.0618  20.0750  20.5104  20.5179  20.8887  20.9009  21.1294  21.1324
    21.2550  21.2650  21.4288  21.4427  21.5308  21.5340  21.6111  21.6300
    21.6660  21.6719  21.8324  21.8490  22.0579  22.0704  22.3033  22.3064
    22.3580  22.3820  22.4741  22.4803  22.9938  23.0015  23.1143  23.1361
    23.2491  23.2513  23.3081  23.3226  23.4124  23.4136  23.5689  23.5939
    23.6712  23.6734  23.7673  23.7695  23.8576  23.8588  23.9360  23.9428
    24.0601  24.0648  24.1640  24.1666  24.1732  24.1741  24.2394  24.2443
    24.3406  24.3455  24.3590  24.3606  24.4741  24.4767  24.6030  24.6059
    24.7417  24.7448  24.7509  24.7551  24.8329  24.8400  24.9361  24.9432
    25.0501  25.0583  25.1486  25.1502  25.4040  25.4094  25.5185  25.5237
    25.5857  25.5957  25.6670  25.6716  25.7664  25.7754  25.9108  25.9170
    25.9539  25.9584  26.1294  26.1340  26.1539  26.1711  26.3168  26.3279
    26.4597  26.4682  26.4918  26.5029  26.5752  26.5872  26.6590  26.6844
    26.7508  26.7533  27.0186  27.0411  27.1673  27.1717  27.3478  27.3539
    27.3680  27.4127  27.5078  27.5491  27.6531  27.7080  27.8007  27.8396
    27.9810  28.0171  28.1200  28.1502  28.1858  28.3600  28.3689  28.3879
    28.4196  28.4960  28.5092  28.5439  28.6921  28.7171  28.9218  28.9364
    28.9575  28.9624  28.9902  29.0557  29.0735  29.1071  29.2858  29.2884
    29.3970  29.4011  29.4536  29.4590  29.8007  29.8104  29.8404  29.8597
    30.0899  30.1048  30.1661  30.1917  30.3561  30.3797  30.4453  30.4511
    30.5151  30.5841  30.8100  30.8267  30.9525  31.0372  31.0753  31.0873
    31.2687  31.3310  31.4447  31.4507  31.6094  31.6423  31.8405  31.8492
    32.0502  32.0906  32.1494  32.2045  32.2808  32.2907  32.4277  32.4298
    32.6167  32.6388  32.6973  32.7045  32.7547  32.7620  32.8589  32.8726
    32.9754  32.9819  33.0821  33.0896  33.3204  33.3232  33.4783  33.5041
    33.7207  33.7270  33.9024  33.9107  34.1128  34.1388  34.1532  34.1872
    34.2901  34.3025  34.4929  34.4997  34.5299  34.5797  34.6682  34.6852
    34.8456  34.8606  34.9110  34.9420  35.1427  35.1574  35.2872  35.2951
    35.3831  35.4290  35.6615  35.6785  35.8130  35.8217  36.0594  36.0843
    36.3060  36.3478  36.4889  36.5236  36.5547  36.5843  36.7106  36.7743
    36.8344  36.8512  36.8903  36.8937  37.0550  37.1027  37.2174  37.3276
    37.3480  37.3745  37.5879  37.5910  37.8477  37.8579  37.9137  37.9951
    38.0323  38.0750  38.2960  38.3016  38.4183  38.4240  38.5633  38.5697
    38.5885  38.6161  38.7574  38.8208  38.8852  38.8913  38.9898  39.0498
    39.0740  39.0905  39.2244  39.2272  39.2929  39.3161  39.4536  39.4706
    39.5114  39.5229  39.6043  39.6483  39.7191  39.7330  39.8818  39.9034
    39.9406  39.9748  40.2561  40.2671

          k = 0.6667 0.0000 0.0000 ( 45606 PWs)   bands (ev):

   -27.2770 -27.2767 -27.1996 -27.1987 -24.3305 -24.3299 -24.2491 -24.2478
   -24.2055 -24.2047 -18.4055 -18.4050 -18.1056 -18.0675 -17.8476 -17.8272
   -17.6894 -17.6345 -17.6178 -17.5852 -17.4913 -17.4912 -17.0193 -17.0184
   -13.1125 -13.1125  -9.3616  -9.1589  -7.0063  -6.7347  -6.3289  -6.1908
    -6.1170  -5.9627  -5.3677  -5.3510  -5.3321  -5.2832  -4.9840  -4.9066
    -4.5157  -4.1773  -0.9295  -0.4987   0.4767   1.2471   1.5464   1.5504
     1.8998   2.0346   2.6709   2.8785   3.4108   3.4794   4.8720   4.9699
     5.0747   5.0876   5.2615   5.2753   5.4169   5.4288   5.8194   5.8266
     5.8966   5.8984   6.3547   6.4172   6.5284   6.5359   6.5794   6.6092
     6.6458   6.8492   7.0725   7.1710   7.2312   7.2402   7.2661   7.2702
     7.3109   7.3225   7.3748   7.3757   7.7456   7.7618   7.7678   7.7722
     7.9151   8.1840   8.6416   8.6461   8.8448   8.9572   9.2870   9.3316
     9.3451   9.3468   9.8097   9.8196   9.9045   9.9349  10.1346  10.1444
    10.4798  10.5810  10.6586  10.6607  10.7684  10.8855  11.3195  11.3197
    11.3393  11.3460  11.3563  11.3573  11.5695  11.5696  12.1729  12.1745
    12.4972  12.6137  12.6332  12.6393  12.6918  12.6964  13.0728  13.0927
    13.1621  13.1755  13.5837  13.6846  14.0032  14.0043  14.0048  14.0657
    14.0663  14.0874  14.1126  14.1618  14.2577  14.2805  14.5627  14.5658
    14.7375  14.7416  14.8814  14.8819  15.1612  15.1941  15.1997  15.2097
    15.2643  15.2682  15.4136  15.4495  15.4556  15.4739  15.7007  15.7017
    15.7524  15.7548  15.9145  15.9203  16.4534  16.4549  16.6068  16.6145
    16.7928  16.7975  16.8376  16.8612  16.9438  16.9440  17.1343  17.1754
    17.3689  17.3717  17.4185  17.4294  17.4623  17.4918  17.7046  17.7440
    17.8324  17.8615  18.1067  18.1378  18.2641  18.2822  18.3409  18.3622
    18.6269  18.6331  18.7578  18.7609  18.9857  19.0069  19.0208  19.0280
    19.5340  19.5709  19.6848  19.6852  19.8109  19.8338  19.9960  20.0007
    20.0520  20.0644  20.5020  20.5099  21.0397  21.0432  21.0914  21.0933
    21.1876  21.2016  21.4866  21.4963  21.5069  21.5342  21.6404  21.6543
    21.7226  21.7442  21.8237  21.8279  21.9488  21.9537  22.2205  22.2212
    22.3582  22.3824  22.5780  22.5784  23.0497  23.0596  23.1112  23.1445
    23.2807  23.2908  23.4362  23.4365  23.6150  23.6201  23.6378  23.6390
    23.6748  23.6761  23.6779  23.6782  23.9761  23.9763  24.0128  24.0153
    24.0487  24.0492  24.0759  24.0872  24.1622  24.1693  24.1697  24.1704
    24.2306  24.2321  24.4313  24.4373  24.5355  24.5431  24.5704  24.5725
    24.6501  24.6514  24.7478  24.7640  24.7679  24.7706  24.8631  24.8710
    24.9804  24.9823  25.0287  25.0419  25.4805  25.5007  25.5292  25.5430
    25.6965  25.7051  25.7543  25.7600  25.7684  25.7766  25.8683  25.8723
    26.0000  26.0001  26.1168  26.1246  26.1319  26.1401  26.2618  26.2769
    26.3442  26.3466  26.5112  26.5231  26.5306  26.5610  26.6214  26.6367
    26.7843  26.7849  27.1063  27.1117  27.1537  27.1547  27.2854  27.3130
    27.3130  27.3419  27.4671  27.5283  27.6358  27.6950  27.8054  27.8372
    28.0673  28.0813  28.1014  28.2424  28.2470  28.3284  28.3427  28.3443
    28.3578  28.4911  28.6382  28.6488  28.7858  28.7948  28.8194  28.8237
    28.9136  28.9254  28.9254  29.0173  29.0330  29.0432  29.3301  29.3498
    29.3753  29.3931  29.4685  29.4801  29.8666  29.8675  29.9870  30.0354
    30.0473  30.0557  30.0618  30.1379  30.1695  30.1750  30.5346  30.5684
    30.5714  30.5845  30.6433  30.6531  30.9515  31.0895  31.1735  31.2009
    31.2166  31.2202  31.2629  31.3827  31.7301  31.7386  31.8613  31.8711
    32.0360  32.1106  32.1152  32.1283  32.3407  32.3428  32.5081  32.5117
    32.5804  32.5867  32.7208  32.7345  32.7932  32.8014  32.8062  32.8228
    32.9368  32.9434  32.9550  32.9648  33.3440  33.3473  33.5049  33.5154
    33.8237  33.8292  33.8397  33.8451  34.1678  34.1908  34.2052  34.2778
    34.3902  34.3938  34.4061  34.4112  34.4261  34.4305  34.6225  34.6449
    34.8992  34.9215  34.9286  34.9499  35.0497  35.0562  35.2482  35.2528
    35.3635  35.4228  35.6855  35.6883  35.7771  35.7816  36.1916  36.2128
    36.2698  36.3120  36.5191  36.5500  36.5988  36.6163  36.8301  36.8311
    36.8761  36.8825  36.9161  36.9215  36.9844  37.0762  37.1454  37.1493
    37.1786  37.2113  37.6864  37.6906  37.7716  37.7916  38.0507  38.1179
    38.1858  38.2073  38.2804  38.2850  38.3767  38.3817  38.4815  38.4990
    38.6149  38.6314  38.8789  38.9055  38.9104  38.9244  39.0216  39.1031
    39.1399  39.1412  39.1984  39.2213  39.2537  39.2546  39.4656  39.4720
    39.5098  39.5231  39.5298  39.5464  39.7484  39.7869  39.8364  39.8382
    40.0402  40.0672  40.0843  40.0913

     Writing all to output data dir ./outdir/GaBiCl2.save/

     init_run     :      5.25s CPU      2.73s WALL (       1 calls)
     electrons    :  96651.09s CPU  24624.46s WALL (       1 calls)

     Called by init_run:
     wfcinit      :      0.00s CPU      0.00s WALL (       1 calls)
     potinit      :      2.08s CPU      0.73s WALL (       1 calls)
     hinit0       :      2.80s CPU      1.62s WALL (       1 calls)

     Called by electrons:
     c_bands      :  96651.07s CPU  24624.44s WALL (       1 calls)
     v_of_rho     :      0.67s CPU      0.20s WALL (       1 calls)

     Called by c_bands:
     init_us_2    :      1.40s CPU      1.37s WALL (      61 calls)
     init_us_2:cp :      1.40s CPU      1.37s WALL (      61 calls)
     cegterg      :  93163.30s CPU  23631.83s WALL (     122 calls)

     Called by *egterg:
     cdiaghg      :   1825.92s CPU    820.85s WALL (    2205 calls)
     h_psi        :  57887.12s CPU  14600.99s WALL (    2327 calls)
     g_psi        :    477.66s CPU    100.60s WALL (    2144 calls)

     Called by h_psi:
     h_psi:calbec :   1277.61s CPU    309.21s WALL (    2327 calls)
     vloc_psi     :  55132.18s CPU  13927.31s WALL (    2327 calls)
     add_vuspsi   :   1048.97s CPU    266.63s WALL (    2327 calls)

     General routines
     calbec       :   1277.57s CPU    309.21s WALL (    2327 calls)
     fft          :      1.96s CPU      0.91s WALL (      18 calls)
     ffts         :      1.03s CPU      0.44s WALL (       4 calls)
     fftw         :  42262.31s CPU  10694.65s WALL ( 2554776 calls)
     interpolate  :      1.23s CPU      0.49s WALL (       4 calls)
     davcio       :     10.70s CPU   1080.41s WALL (     122 calls)

     Parallel routines

     PWSCF        :   1d 2h51m CPU      7h 9m WALL


   This run was terminated on:   0: 4: 0  17Oct2022            

=------------------------------------------------------------------------------=
   JOB DONE.
=------------------------------------------------------------------------------=
