
     Program PWSCF v.7.1 starts on 16Oct2022 at 15:13:29 
        Git branch: all_p_qe-7.1
        Last git commit: 64b50ae7008d8f92f2d90b8cd0971bd852daf481
        Last git commit date: Tue Sep 27 11:29:25 2022 -0300
        Last git commit subject: fix: write p instead of |p|^2

     This program is part of the open-source Quantum ESPRESSO suite
     for quantum simulation of materials; please cite
         "P. Giannozzi et al., J. Phys.:Condens. Matter 21 395502 (2009);
         "P. Giannozzi et al., J. Phys.:Condens. Matter 29 465901 (2017);
         "P. Giannozzi et al., J. Chem. Phys. 152 154105 (2020);
          URL http://www.quantum-espresso.org", 
     in publications or presentations arising from this work. More details at
     http://www.quantum-espresso.org/quote

     Parallel version (MPI & OpenMP), running on       4 processor cores
     Number of MPI processes:                 1
     Threads/MPI process:                     4

     MPI processes distributed on     1 nodes
     20856 MiB available memory on the printing compute node when the environment starts

     Reading input from scf.in

     Current dimensions of program PWSCF are:
     Max number of different atomic species (ntypx) = 10
     Max number of k-points (npk) =  40000
     Max angular momentum in pseudopotentials (lmaxx) =  4

     Subspace diagonalization in iterative solution of the eigenvalue problem:
     a serial algorithm will be used


     G-vector sticks info
     --------------------
     sticks:   dense  smooth     PW     G-vecs:    dense   smooth      PW
     Sum        2791    2233    595               509739   364973   51757

     Using Slab Decomposition



     bravais-lattice index     =            4
     lattice parameter (alat)  =       9.0139  a.u.
     unit-cell volume          =    2701.3069 (a.u.)^3
     number of atoms/cell      =            4
     number of atomic types    =            3
     number of electrons       =        42.00
     number of Kohn-Sham states=          500
     kinetic-energy cutoff     =     100.0000  Ry
     charge density cutoff     =     500.0000  Ry
     scf convergence threshold =      1.0E-08
     mixing beta               =       0.7000
     number of iterations used =            8  plain     mixing
     Exchange-correlation= PBE
                           (   1   4   3   4   0   0   0)
     Non magnetic calculation with spin-orbit


     celldm(1)=   9.013946  celldm(2)=   0.000000  celldm(3)=   4.258910
     celldm(4)=   0.000000  celldm(5)=   0.000000  celldm(6)=   0.000000

     crystal axes: (cart. coord. in units of alat)
               a(1) = (   1.000000   0.000000   0.000000 )  
               a(2) = (  -0.500000   0.866025   0.000000 )  
               a(3) = (   0.000000   0.000000   4.258910 )  

     reciprocal axes: (cart. coord. in units 2 pi/alat)
               b(1) = (  1.000000  0.577350 -0.000000 )  
               b(2) = (  0.000000  1.154701  0.000000 )  
               b(3) = (  0.000000 -0.000000  0.234802 )  


     PseudoPot. # 1 for Ga read from file:
     ../../pseudos/ONCVPSP/abinit/Ga_ONCV_PBE_fr.upf
     MD5 check sum: e9c22aa58ae81c6101e8ac1c888eeafc
     Pseudo is Norm-conserving + core correction, Zval = 13.0
     Generated using ONCVPSP code by D. R. Hamann
     Using radial grid of 1926 points, 10 beta functions with: 
                l(1) =   0
                l(2) =   0
                l(3) =   1
                l(4) =   1
                l(5) =   1
                l(6) =   1
                l(7) =   2
                l(8) =   2
                l(9) =   2
               l(10) =   2

     PseudoPot. # 2 for Bi read from file:
     ../../pseudos/ONCVPSP/abinit/Bi_ONCV_PBE_fr.upf
     MD5 check sum: 67fe3f209319bd312dc946f0524d3915
     Pseudo is Norm-conserving + core correction, Zval = 15.0
     Generated using ONCVPSP code by D. R. Hamann
     Using radial grid of 1562 points, 10 beta functions with: 
                l(1) =   0
                l(2) =   0
                l(3) =   1
                l(4) =   1
                l(5) =   1
                l(6) =   1
                l(7) =   2
                l(8) =   2
                l(9) =   2
               l(10) =   2

     PseudoPot. # 3 for Cl read from file:
     ../../pseudos/ONCVPSP/abinit/Cl_ONCV_PBE_fr.upf
     MD5 check sum: a15e3fbbeaab72d46083b17a69c4f9b2
     Pseudo is Norm-conserving + core correction, Zval =  7.0
     Generated using ONCVPSP code by D. R. Hamann
     Using radial grid of 1028 points, 10 beta functions with: 
                l(1) =   0
                l(2) =   0
                l(3) =   1
                l(4) =   1
                l(5) =   1
                l(6) =   1
                l(7) =   2
                l(8) =   2
                l(9) =   2
               l(10) =   2

     atomic species   valence    mass     pseudopotential
        Ga            13.00    69.72300     Ga( 1.00)
        Bi            15.00   208.98000     Bi( 1.00)
        Cl             7.00    35.45000     Cl( 1.00)

      6 Sym. Ops. (no inversion) found



   Cartesian axes

     site n.     atom                  positions (alat units)
         1           Ga  tau(   1) = (   0.5000000   0.2886751   2.1294549  )
         2           Bi  tau(   2) = (  -0.0000000   0.5773503   1.9896225  )
         3           Cl  tau(   3) = (   0.5000000   0.2886751   2.5894130  )
         4           Cl  tau(   4) = (  -0.0000000   0.5773503   1.4751571  )

     number of k points=    10
                       cart. coord. in units 2pi/alat
        k(    1) = (   0.0000000   0.0000000   0.0000000), wk =   0.0156250
        k(    2) = (   0.0000000   0.1443376   0.0000000), wk =   0.0937500
        k(    3) = (   0.0000000   0.2886751   0.0000000), wk =   0.0937500
        k(    4) = (   0.0000000   0.4330127   0.0000000), wk =   0.0937500
        k(    5) = (   0.0000000  -0.5773503   0.0000000), wk =   0.0468750
        k(    6) = (   0.1250000   0.2165064   0.0000000), wk =   0.0937500
        k(    7) = (   0.1250000   0.3608439   0.0000000), wk =   0.1875000
        k(    8) = (   0.1250000   0.5051815   0.0000000), wk =   0.1875000
        k(    9) = (   0.2500000   0.4330127   0.0000000), wk =   0.0937500
        k(   10) = (   0.2500000   0.5773503   0.0000000), wk =   0.0937500

     Dense  grid:   509739 G-vectors     FFT dimensions: (  72,  72, 288)

     Smooth grid:   364973 G-vectors     FFT dimensions: (  60,  60, 250)

     Estimated max dynamical RAM per process >      11.31 GB

     Initial potential from superposition of free atoms

     starting charge      41.9962, renormalised to      42.0000

     negative rho (up, down):  3.168E-06 0.000E+00
     Starting wfcs are   52 randomized atomic wfcs +  448 random wfcs

     total cpu time spent up to now is      164.8 secs

     per-process dynamical memory:   102.8 Mb

     Self-consistent Calculation

     iteration #  1     ecut=   100.00 Ry     beta= 0.70
     Davidson diagonalization with overlap
     ethr =  1.00E-02,  avg # of iterations =  8.1

     Threshold (ethr) on eigenvalues was too large:
     Diagonalizing with lowered threshold

     Davidson diagonalization with overlap
     ethr =  4.45E-04,  avg # of iterations =  1.0

     negative rho (up, down):  7.020E-07 0.000E+00

     total cpu time spent up to now is     1594.4 secs

     total energy              =    -382.37893475 Ry
     estimated scf accuracy    <       0.18681679 Ry

     iteration #  2     ecut=   100.00 Ry     beta= 0.70
     Davidson diagonalization with overlap
     ethr =  4.45E-04,  avg # of iterations =  2.9

     negative rho (up, down):  4.717E-07 0.000E+00

     total cpu time spent up to now is     2027.9 secs

     total energy              =    -382.35661837 Ry
     estimated scf accuracy    <       0.44164459 Ry

     iteration #  3     ecut=   100.00 Ry     beta= 0.70
     Davidson diagonalization with overlap
     ethr =  4.45E-04,  avg # of iterations =  2.1

     negative rho (up, down):  2.719E-07 0.000E+00

     total cpu time spent up to now is     2498.7 secs

     total energy              =    -382.45554485 Ry
     estimated scf accuracy    <       0.03234331 Ry

     iteration #  4     ecut=   100.00 Ry     beta= 0.70
     Davidson diagonalization with overlap
     ethr =  7.70E-05,  avg # of iterations =  2.4

     negative rho (up, down):  6.968E-08 0.000E+00

     total cpu time spent up to now is     3029.9 secs

     total energy              =    -382.45979178 Ry
     estimated scf accuracy    <       0.00973608 Ry

     iteration #  5     ecut=   100.00 Ry     beta= 0.70
     Davidson diagonalization with overlap
     ethr =  2.32E-05,  avg # of iterations =  2.4

     total cpu time spent up to now is     3580.3 secs

     total energy              =    -382.46167363 Ry
     estimated scf accuracy    <       0.00069383 Ry

     iteration #  6     ecut=   100.00 Ry     beta= 0.70
     Davidson diagonalization with overlap
     c_bands:  1 eigenvalues not converged
     c_bands:  1 eigenvalues not converged
     ethr =  1.65E-06,  avg # of iterations = 10.0

     total cpu time spent up to now is     4130.4 secs

     total energy              =    -382.46180392 Ry
     estimated scf accuracy    <       0.00002231 Ry

     iteration #  7     ecut=   100.00 Ry     beta= 0.70
     Davidson diagonalization with overlap
     ethr =  5.31E-08,  avg # of iterations =  2.1

     total cpu time spent up to now is     4654.8 secs

     total energy              =    -382.46180668 Ry
     estimated scf accuracy    <       0.00000280 Ry

     iteration #  8     ecut=   100.00 Ry     beta= 0.70
     Davidson diagonalization with overlap
     ethr =  6.68E-09,  avg # of iterations =  1.4

     total cpu time spent up to now is     5043.9 secs

     total energy              =    -382.46180715 Ry
     estimated scf accuracy    <       0.00000017 Ry

     iteration #  9     ecut=   100.00 Ry     beta= 0.70
     Davidson diagonalization with overlap
     ethr =  4.09E-10,  avg # of iterations =  1.2

     total cpu time spent up to now is     5431.2 secs

     total energy              =    -382.46180720 Ry
     estimated scf accuracy    <       0.00000002 Ry

     iteration # 10     ecut=   100.00 Ry     beta= 0.70
     Davidson diagonalization with overlap
     ethr =  4.99E-11,  avg # of iterations =  2.0

     total cpu time spent up to now is     6039.4 secs

     End of self-consistent calculation

          k = 0.0000 0.0000 0.0000 ( 45693 PWs)   bands (ev):

   -27.2774 -27.2774 -27.2002 -27.2002 -24.3320 -24.3320 -24.2476 -24.2476
   -24.2074 -24.2074 -18.4129 -18.4129 -18.0783 -18.0783 -17.8294 -17.8294
   -17.6325 -17.6325 -17.6137 -17.6137 -17.5829 -17.5829 -17.0675 -17.0675
   -13.7039 -13.7039  -8.1934  -8.1934  -6.3074  -6.3074  -5.5585  -5.5585
    -5.3292  -5.3292  -5.1823  -5.1823  -5.0411  -5.0411  -3.9067  -3.9067
    -3.6211  -3.6211  -2.6371  -2.6371  -1.1687  -1.1687   0.5547   0.5547
     0.8171   0.8171   2.1198   2.1198   2.7788   2.7788   3.1414   3.1414
     3.7654   3.7654   3.9765   3.9765   4.2698   4.2698   5.4557   5.4557
     5.5911   5.5911   5.6482   5.6482   5.6954   5.6954   6.2395   6.2395
     6.2447   6.2447   7.5077   7.5077   8.0817   8.0817   8.1078   8.1078
     8.3322   8.3322   8.5080   8.5080   8.5327   8.5327   9.0893   9.0893
     9.4685   9.4685  10.5004  10.5004  10.5460  10.5460  10.5791  10.5791
    10.6141  10.6141  10.6352  10.6352  11.4119  11.4119  11.6715  11.6715
    11.8729  11.8729  12.0623  12.0623  12.0833  12.0833  12.1149  12.1149
    12.1189  12.1189  12.2104  12.2104  12.4106  12.4106  12.4131  12.4131
    12.5315  12.5315  12.5547  12.5547  12.5810  12.5810  12.8221  12.8221
    12.9038  12.9038  13.3320  13.3320  13.3468  13.3468  13.4151  13.4151
    13.5289  13.5289  13.5393  13.5393  13.6292  13.6292  14.1082  14.1082
    14.1186  14.1186  14.2414  14.2414  14.3234  14.3234  14.7910  14.7910
    14.8351  14.8351  14.9765  14.9765  15.2050  15.2050  15.3215  15.3215
    15.5550  15.5550  15.6265  15.6265  15.7096  15.7096  15.7593  15.7593
    15.9379  15.9379  16.1025  16.1025  16.1210  16.1210  16.5627  16.5627
    16.6683  16.6683  16.7651  16.7651  16.7795  16.7795  16.8594  16.8594
    17.4912  17.4912  17.5955  17.5955  17.6627  17.6627  18.1341  18.1341
    18.1732  18.1732  18.2024  18.2024  18.4028  18.4028  18.5143  18.5143
    18.6735  18.6735  18.8466  18.8466  18.8647  18.8647  18.9157  18.9157
    19.3545  19.3545  19.7358  19.7358  19.7521  19.7521  19.8459  19.8459
    19.8712  19.8712  20.0694  20.0694  20.6385  20.6385  20.6758  20.6758
    20.7559  20.7559  20.9732  20.9732  21.1985  21.1985  21.2228  21.2228
    21.7421  21.7421  21.7738  21.7738  22.0726  22.0726  22.6429  22.6429
    22.7293  22.7293  22.9111  22.9111  22.9508  22.9508  23.1893  23.1893
    23.3410  23.3410  23.5313  23.5313  23.5450  23.5450  23.7064  23.7064
    23.8330  23.8330  24.1959  24.1959  24.3489  24.3489  24.5403  24.5403
    24.7267  24.7267  24.8134  24.8134  24.8207  24.8207  25.6897  25.6897
    25.7262  25.7262  25.9479  25.9479  26.2961  26.2961  26.4638  26.4638
    26.4811  26.4811  26.6860  26.6860  26.9945  26.9945  27.0445  27.0445
    27.3849  27.3849  27.5131  27.5131  27.7284  27.7284  27.7323  27.7323
    27.7867  27.7867  27.9661  27.9661  28.2497  28.2497  28.3540  28.3540
    28.4614  28.4614  28.5034  28.5034  28.6600  28.6600  28.7725  28.7725
    28.7750  28.7750  29.0666  29.0666  29.0788  29.0788  29.0917  29.0917
    29.3426  29.3426  29.5438  29.5438  29.5635  29.5635  29.5974  29.5974
    29.6018  29.6018  29.7900  29.7900  29.8562  29.8562  29.9393  29.9393
    30.0253  30.0253  30.1096  30.1096  30.1133  30.1133  30.1994  30.1994
    30.2272  30.2272  30.2386  30.2386  30.3400  30.3400  30.7589  30.7589
    30.7692  30.7692  30.8415  30.8415  30.9029  30.9029  31.1069  31.1069
    31.1575  31.1575  31.2125  31.2125  31.2208  31.2208  31.5181  31.5181
    31.5311  31.5311  31.6934  31.6934  31.8200  31.8200  31.9277  31.9277
    31.9485  31.9485  31.9609  31.9609  31.9644  31.9644  32.1619  32.1619
    32.1861  32.1861  32.1917  32.1917  32.2528  32.2528  32.3972  32.3972
    32.4284  32.4284  32.8453  32.8453  32.8500  32.8500  33.0517  33.0517
    33.0530  33.0530  33.1267  33.1267  33.2458  33.2458  33.3319  33.3319
    33.3785  33.3785  33.5136  33.5136  33.9040  33.9040  33.9402  33.9402
    34.1182  34.1182  34.1996  34.1996  34.2058  34.2058  34.5535  34.5535
    34.6091  34.6091  34.6768  34.6768  34.9189  34.9189  34.9256  34.9256
    34.9712  34.9712  35.2038  35.2038  35.3297  35.3297  35.3396  35.3396
    35.5851  35.5851  35.5877  35.5877  35.7249  35.7249  36.0080  36.0080
    36.0919  36.0919  36.0993  36.0993  36.3901  36.3901  36.4394  36.4394
    37.0304  37.0304  37.0729  37.0729  37.0735  37.0735  37.4410  37.4410
    37.4579  37.4579  37.5510  37.5510  37.5750  37.5750  37.8453  37.8453
    37.8948  37.8948  37.8988  37.8988  38.0190  38.0190  38.0400  38.0400
    38.0488  38.0488  38.1920  38.1920  38.2635  38.2635  38.3763  38.3763
    38.3902  38.3902  38.5188  38.5188  38.5193  38.5193  38.5404  38.5404
    38.7016  38.7016  38.7053  38.7056

          k = 0.0000 0.1443 0.0000 ( 45651 PWs)   bands (ev):

   -27.2774 -27.2772 -27.2001 -27.2001 -24.3320 -24.3314 -24.2478 -24.2477
   -24.2071 -24.2071 -18.4122 -18.4115 -18.0796 -18.0796 -17.8330 -17.8279
   -17.6466 -17.6461 -17.6045 -17.6002 -17.5719 -17.5684 -17.0619 -17.0607
   -13.6437 -13.6410  -8.3312  -8.2288  -6.4975  -6.3177  -5.6890  -5.6859
    -5.4244  -5.4215  -5.2218  -5.2042  -5.0861  -5.0821  -4.4761  -4.3419
    -3.5335  -3.3778  -2.2375  -2.1824  -1.0973  -1.0330   0.5570   0.5684
     1.1081   1.1085   2.4152   2.4207   2.8072   2.8115   3.2854   3.2904
     3.6598   3.7571   4.2178   4.2875   4.3361   4.3964   5.3947   5.4207
     5.4872   5.5333   5.6515   5.6545   5.8714   5.9502   6.2255   6.2915
     6.5585   6.5714   7.4568   7.4741   7.6829   7.6854   8.1102   8.1271
     8.1740   8.2112   8.5593   8.5697   8.8188   8.8215   9.2001   9.2063
     9.6243   9.6380   9.9898   9.9975  10.2191  10.2271  10.3109  10.3136
    10.5005  10.5029  10.7462  10.7506  10.8359  10.8390  11.0653  11.0720
    11.2861  11.2972  11.4221  11.4292  11.4347  11.4363  11.7768  11.7799
    11.8468  11.8470  12.0266  12.0773  12.2513  12.2659  12.4278  12.4432
    12.6638  12.6656  12.7301  12.7399  12.9221  12.9494  13.0502  13.0564
    13.2768  13.2808  13.3926  13.3987  13.4089  13.4106  13.5912  13.6125
    13.7119  13.7171  13.8318  13.8420  13.9253  13.9422  14.1096  14.1350
    14.2253  14.2280  14.3739  14.3754  14.5286  14.5391  14.7203  14.7364
    14.7965  14.7967  15.0747  15.0787  15.1694  15.1766  15.2361  15.2362
    15.2877  15.2962  15.5927  15.6191  15.6903  15.6953  15.8514  15.8819
    16.0396  16.0906  16.1021  16.1201  16.2288  16.2316  16.4837  16.4876
    16.6412  16.6490  16.9167  16.9264  17.0269  17.0275  17.2278  17.2322
    17.4971  17.5266  17.6169  17.6207  17.8242  17.8271  18.0497  18.0505
    18.1201  18.1270  18.2769  18.2831  18.6138  18.6153  18.6637  18.6920
    18.7203  18.7249  19.2402  19.2525  19.3290  19.3312  19.5011  19.5034
    19.5628  19.5714  19.7492  19.7626  19.8845  19.8862  20.1552  20.1639
    20.3193  20.3217  20.5141  20.5248  20.7281  20.7544  20.8645  20.8679
    21.1050  21.1113  21.1875  21.2185  21.2964  21.3177  21.5000  21.5173
    21.6075  21.6141  21.8588  21.8654  22.0506  22.0761  22.2685  22.2873
    22.4116  22.4153  22.5704  22.5898  23.0723  23.1202  23.2298  23.2988
    23.3293  23.3371  23.4635  23.4745  23.8014  23.8087  23.8770  23.8915
    24.0926  24.1207  24.2082  24.2096  24.3503  24.3510  24.5144  24.5181
    24.6941  24.6997  24.8115  24.8196  25.0219  25.0496  25.2279  25.2381
    25.3112  25.3261  25.6394  25.6675  25.8357  25.8513  25.9307  25.9326
    26.2351  26.2404  26.3341  26.3463  26.4540  26.4598  26.6408  26.6442
    26.7308  26.7383  26.8381  26.8518  26.9765  26.9968  27.1505  27.1590
    27.2173  27.2325  27.4168  27.4213  27.6885  27.7241  27.7705  27.7707
    27.9153  27.9575  28.1342  28.1436  28.1750  28.1805  28.2860  28.2957
    28.3425  28.3477  28.4845  28.5200  28.6474  28.6643  28.8241  28.8419
    28.8946  28.9243  29.0217  29.0244  29.2106  29.2185  29.3253  29.3266
    29.3951  29.3973  29.5011  29.5031  29.6309  29.6412  29.7022  29.7038
    29.7646  29.7738  29.9387  29.9522  29.9990  30.0031  30.1175  30.1467
    30.2077  30.2130  30.2461  30.2505  30.5476  30.5834  30.7010  30.7281
    30.7455  30.7457  30.8824  30.9003  30.9454  30.9510  31.0876  31.0878
    31.1282  31.1359  31.2630  31.2644  31.3879  31.4299  31.4441  31.4666
    31.5894  31.5932  31.8345  31.8383  31.9432  31.9506  31.9729  31.9881
    32.0623  32.0623  32.3670  32.3682  32.4354  32.4446  32.5613  32.5657
    32.6736  32.6738  32.6954  32.7087  32.8921  32.8931  33.0171  33.0177
    33.1375  33.1517  33.2544  33.2726  33.2840  33.2884  33.3414  33.3514
    33.3974  33.4010  33.6157  33.6159  33.7986  33.8123  33.8976  33.9001
    33.9398  33.9452  34.0267  34.0337  34.1475  34.1680  34.1996  34.2064
    34.3781  34.3865  34.4812  34.4856  34.5715  34.5859  34.6147  34.6171
    34.8353  34.8432  34.8636  34.8637  34.9764  34.9795  35.0932  35.1007
    35.2895  35.3179  35.3384  35.3389  35.4421  35.4572  35.5095  35.5184
    35.5268  35.5352  35.6706  35.6720  35.6768  35.6854  35.9061  35.9091
    35.9179  35.9183  36.1424  36.1454  36.1862  36.1891  36.2132  36.2197
    36.3455  36.3552  36.3619  36.3660  36.6622  36.6728  36.7099  36.7165
    36.7529  36.7795  36.9253  36.9290  36.9506  36.9630  37.0225  37.0255
    37.1122  37.1128  37.1379  37.1558  37.2492  37.2505  37.3526  37.3548
    37.4257  37.4405  37.5672  37.5801  37.6554  37.6569  37.8545  37.8560
    37.9538  37.9816  38.2032  38.2039  38.2130  38.2136  38.3977  38.3977
    38.4764  38.4790  38.7038  38.7121

          k = 0.0000 0.2887 0.0000 ( 45637 PWs)   bands (ev):

   -27.2773 -27.2769 -27.1997 -27.1997 -24.3316 -24.3308 -24.2480 -24.2480
   -24.2064 -24.2063 -18.4099 -18.4088 -18.0826 -18.0825 -17.8358 -17.8296
   -17.6604 -17.6575 -17.5979 -17.5973 -17.5420 -17.5347 -17.0468 -17.0451
   -13.4797 -13.4758  -8.6460  -8.5136  -6.7942  -6.4825  -5.9926  -5.9044
    -5.5766  -5.5764  -5.3140  -5.2957  -5.1321  -5.1274  -4.7887  -4.7410
    -3.6547  -3.5919  -1.7860  -1.7590  -0.8570  -0.8113   0.9888   1.1303
     2.0092   2.0154   2.5177   2.5626   3.0202   3.0450   3.5835   3.5933
     3.9709   3.9927   4.4439   4.4458   4.8848   4.9045   5.3928   5.3930
     5.4481   5.4494   5.9655   6.1091   6.1960   6.2273   6.5894   6.5909
     6.8544   6.8884   7.2533   7.2601   7.6263   7.6517   8.0267   8.0631
     8.2498   8.2528   8.3934   8.4094   8.5862   8.5919   8.7131   8.7153
     8.9739   8.9830   9.4127   9.4411   9.8784   9.9184  10.0313  10.0405
    10.1661  10.1693  10.3174  10.3272  10.4621  10.4634  10.5010  10.5051
    10.9011  10.9023  11.0108  11.0349  11.0799  11.0838  11.2212  11.2530
    11.3027  11.3039  11.5477  11.5596  11.6802  11.6841  11.9017  11.9045
    12.1348  12.1529  12.4149  12.4537  12.4770  12.4773  12.7523  12.7697
    13.0550  13.0733  13.0970  13.0996  13.3516  13.3772  13.5106  13.5211
    13.5252  13.5280  13.9105  13.9333  14.5208  14.5387  14.5430  14.5542
    14.7507  14.7571  14.8279  14.8372  14.9262  14.9326  15.0559  15.0593
    15.2461  15.2707  15.4404  15.4435  15.6670  15.6743  15.6934  15.7034
    15.8678  15.8694  15.9383  15.9415  16.1477  16.1588  16.2757  16.2784
    16.6514  16.6548  16.7080  16.7170  16.7345  16.7461  16.9964  17.0088
    17.0203  17.0224  17.1722  17.1727  17.3179  17.3183  17.7425  17.7575
    17.8806  17.8857  17.9236  17.9236  18.0539  18.0687  18.3518  18.3592
    18.5337  18.5360  18.7251  18.7256  18.8185  18.8349  18.8668  18.8704
    18.9149  18.9455  19.1507  19.1784  19.2392  19.2455  19.5711  19.6063
    19.8786  19.8925  20.0019  20.0030  20.0122  20.0173  20.3160  20.3258
    20.5443  20.5459  20.8024  20.8050  20.8258  20.8311  21.0451  21.0488
    21.2909  21.3090  21.5384  21.5430  21.6307  21.6349  21.6786  21.6796
    21.9821  21.9848  22.4017  22.4106  22.4578  22.4796  22.5529  22.5560
    22.5826  22.6020  22.8988  22.9177  23.0522  23.0639  23.0916  23.1226
    23.3511  23.3553  23.4302  23.4315  23.6433  23.6682  23.6977  23.7245
    23.8420  23.9094  23.9710  23.9761  24.0010  24.0249  24.1142  24.1189
    24.2281  24.2330  24.3799  24.3846  24.5054  24.5290  24.6879  24.6905
    24.8728  24.8942  25.0173  25.0469  25.0764  25.0795  25.2216  25.2684
    25.3190  25.3211  25.4756  25.4776  25.5410  25.5530  25.7072  25.7090
    25.8650  25.8926  26.0544  26.0556  26.0850  26.0973  26.2891  26.2933
    26.5361  26.5366  26.8212  26.8370  26.9253  26.9304  27.1071  27.1135
    27.2620  27.2734  27.4786  27.5502  27.6196  27.6526  27.7888  27.7974
    27.9124  27.9273  28.0954  28.0996  28.3218  28.3261  28.4223  28.4236
    28.5064  28.5338  28.8572  28.8594  29.0319  29.0463  29.2428  29.2445
    29.2539  29.2929  29.5136  29.5169  29.5819  29.5823  29.6846  29.6973
    29.8061  29.8550  29.8813  29.8851  29.8889  29.8908  30.1187  30.1237
    30.1410  30.1667  30.2536  30.2536  30.4110  30.4123  30.4196  30.4290
    30.5944  30.6083  30.6179  30.6199  30.7113  30.7216  30.8563  30.8763
    30.9032  30.9053  31.0004  31.0371  31.1021  31.1105  31.1907  31.1918
    31.2346  31.2518  31.4889  31.4902  31.5493  31.5589  31.6864  31.6900
    31.7062  31.7076  32.0228  32.0481  32.1680  32.1874  32.3115  32.3126
    32.3694  32.3817  32.4733  32.4783  32.8185  32.8221  32.8417  32.8431
    32.8916  32.8944  33.0970  33.1242  33.3323  33.3348  33.4382  33.4439
    33.6679  33.6886  33.7213  33.7227  33.7697  33.7746  33.8519  33.8621
    33.8876  33.8928  34.2690  34.2760  34.2884  34.2927  34.3732  34.3795
    34.6170  34.6190  34.7666  34.7666  34.8439  34.8731  34.8889  34.8994
    35.0047  35.0459  35.1696  35.1839  35.1919  35.1926  35.2919  35.2976
    35.3392  35.3399  35.4773  35.4784  35.6468  35.6502  35.6696  35.6739
    35.8261  35.8267  35.8777  35.8783  36.0436  36.0485  36.0922  36.0946
    36.1718  36.1817  36.2180  36.2309  36.2636  36.2681  36.4869  36.5082
    36.5830  36.5838  36.7893  36.7949  36.8155  36.8175  36.8738  36.8811
    37.0305  37.0503  37.1088  37.1301  37.1959  37.1978  37.2517  37.2530
    37.3210  37.3215  37.4254  37.4322  37.4947  37.4963  37.5471  37.5679
    37.6547  37.6565  37.8002  37.8032  37.9517  37.9540  37.9699  37.9703
    38.2234  38.2245  38.2816  38.2897  38.3637  38.3699  38.4829  38.4953
    38.5581  38.5600  38.7229  38.7433

          k = 0.0000 0.4330 0.0000 ( 45645 PWs)   bands (ev):

   -27.2771 -27.2768 -27.1994 -27.1994 -24.3309 -24.3303 -24.2483 -24.2483
   -24.2056 -24.2055 -18.4073 -18.4065 -18.0854 -18.0854 -17.8366 -17.8328
   -17.6662 -17.6639 -17.5964 -17.5961 -17.5128 -17.5077 -17.0310 -17.0299
   -13.2847 -13.2819  -9.0343  -8.9616  -6.8996  -6.6942  -6.1508  -6.0662
    -5.7043  -5.7020  -5.3951  -5.3839  -5.1605  -5.1581  -4.9540  -4.9376
    -3.8042  -3.7802  -1.7830  -1.7673  -0.6180  -0.5917   1.5475   1.7565
     2.6313   2.7062   3.1405   3.1853   3.5934   3.6074   4.1026   4.1291
     4.2666   4.2697   4.9220   4.9227   5.3354   5.4720   5.5491   5.5604
     5.6530   5.6933   5.8864   5.8893   6.1057   6.1907   6.5190   6.5523
     6.7873   6.8548   7.2562   7.3549   7.5494   7.5654   7.9240   7.9324
     7.9405   7.9864   8.1282   8.1555   8.4059   8.4089   8.7304   8.7532
     8.8334   8.8483   8.9244   8.9513   9.1671   9.1846   9.2387   9.2594
     9.6501   9.7127   9.8895   9.8931  10.0337  10.0495  10.0774  10.0784
    10.1051  10.1153  10.2898  10.2989  10.7707  10.7932  10.8084  10.8202
    10.9735  10.9797  11.1861  11.1879  11.2411  11.2444  11.7478  11.7663
    12.2010  12.2096  12.2335  12.2352  12.3421  12.3546  12.6977  12.7180
    13.0346  13.0421  13.3272  13.3369  13.4848  13.4851  13.5254  13.5329
    13.7908  13.8144  13.9675  13.9738  14.1669  14.1908  14.3979  14.4096
    14.9199  14.9232  14.9782  14.9882  15.0988  15.1321  15.4467  15.5498
    15.8654  15.8678  16.0128  16.0171  16.1298  16.2095  16.3184  16.3226
    16.3772  16.3873  16.5459  16.5595  16.5677  16.5806  16.6314  16.6403
    16.7256  16.7273  16.8905  16.9010  17.0939  17.1085  17.1398  17.1491
    17.5028  17.5029  17.5485  17.5499  17.8558  17.8748  18.0381  18.0403
    18.2805  18.2859  18.4988  18.5323  18.7215  18.7219  18.8031  18.8280
    18.8578  18.8582  19.1956  19.1972  19.3589  19.3591  19.5720  19.5936
    19.6801  19.6831  19.7464  19.7620  20.0062  20.0133  20.0468  20.0470
    20.2287  20.2322  20.4287  20.4372  20.5115  20.5494  20.6440  20.6457
    20.6605  20.6621  20.9249  20.9460  21.0484  21.0569  21.0749  21.0761
    21.2147  21.2157  21.2410  21.2413  21.3737  21.4084  21.5386  21.5731
    21.6149  21.6164  21.6361  21.6506  21.7140  21.7201  21.8877  21.8943
    21.9281  21.9290  22.3588  22.3668  22.4701  22.4779  22.6168  22.6655
    22.6842  22.6920  22.7501  22.7572  23.0161  23.0210  23.1208  23.1317
    23.1512  23.1542  23.3783  23.4011  23.5617  23.5693  23.8725  23.8858
    24.0364  24.0365  24.1146  24.1173  24.3148  24.3195  24.4287  24.4333
    24.7284  24.7413  24.7731  24.7750  25.0361  25.0430  25.1232  25.1236
    25.3432  25.3700  25.4601  25.4651  25.5004  25.5051  25.8449  25.8497
    25.9099  25.9113  26.0438  26.0490  26.2802  26.2950  26.3054  26.3078
    26.4044  26.4155  26.5142  26.5221  26.6276  26.6276  26.7609  26.7647
    26.8838  26.8899  27.0131  27.0234  27.1212  27.1228  27.3457  27.3481
    27.4721  27.4973  27.6528  27.6576  27.7288  27.7289  27.8172  27.8181
    27.9645  27.9696  28.1205  28.1357  28.4856  28.4968  28.5343  28.5350
    28.6836  28.7388  28.9104  28.9118  29.0355  29.0422  29.1412  29.1564
    29.6120  29.6195  29.6701  29.7059  29.8829  29.8865  29.9749  29.9768
    30.0360  30.0366  30.1917  30.1979  30.2871  30.2898  30.4163  30.4187
    30.6908  30.7278  30.7496  30.7583  30.8556  30.8580  30.9001  30.9113
    30.9154  30.9357  31.0837  31.0867  31.1343  31.1345  31.2537  31.2666
    31.4563  31.4573  31.5429  31.5588  31.6169  31.6301  31.6914  31.7021
    31.7284  31.7337  31.9186  31.9423  31.9921  31.9922  32.1313  32.1401
    32.2869  32.2889  32.3056  32.3065  32.5136  32.5453  32.7750  32.7944
    32.8133  32.8204  32.8846  32.9244  32.9998  33.0024  33.1182  33.1498
    33.1791  33.1829  33.3464  33.3809  33.4462  33.4747  33.4980  33.5017
    33.7151  33.7249  33.8216  33.8267  33.8891  33.8944  34.0770  34.1072
    34.2160  34.2463  34.2713  34.2756  34.3972  34.4235  34.4862  34.4879
    34.6470  34.6474  34.8881  34.8894  34.9742  35.0025  35.0859  35.0948
    35.2522  35.2648  35.2885  35.2904  35.3837  35.4058  35.5493  35.5524
    35.5916  35.6099  35.7995  35.8231  35.9479  35.9501  36.0226  36.0266
    36.0535  36.0555  36.2631  36.2644  36.2796  36.2905  36.4093  36.4177
    36.5698  36.5810  36.6940  36.7023  36.8288  36.8350  36.8567  36.8652
    37.1147  37.1356  37.1683  37.1838  37.2001  37.2142  37.4284  37.4607
    37.5405  37.5457  37.7566  37.7731  37.7922  37.8007  37.9070  37.9079
    38.0867  38.0936  38.1207  38.1405  38.3740  38.3921  38.5336  38.5339
    38.8250  38.8298  38.8372  38.8414  39.0638  39.0651  39.1107  39.1158
    39.2434  39.2445  39.2854  39.2978

          k = 0.0000-0.5774 0.0000 ( 45622 PWs)   bands (ev):

   -27.2769 -27.2769 -27.1992 -27.1992 -24.3304 -24.3304 -24.2484 -24.2484
   -24.2052 -24.2052 -18.4059 -18.4059 -18.0865 -18.0865 -17.8354 -17.8354
   -17.6668 -17.6668 -17.5959 -17.5959 -17.4994 -17.4994 -17.0240 -17.0240
   -13.1907 -13.1907  -9.1982  -9.1982  -6.8395  -6.8395  -6.1601  -6.1601
    -5.7532  -5.7532  -5.4216  -5.4216  -5.1710  -5.1710  -5.0051  -5.0051
    -3.8534  -3.8534  -1.8217  -1.8217  -0.4905  -0.4905   1.5255   1.5255
     3.2198   3.2198   3.6749   3.6749   4.1288   4.1288   4.5324   4.5324
     4.8330   4.8330   4.9916   4.9916   5.1753   5.1753   5.4575   5.4575
     5.8689   5.8689   5.9945   5.9945   6.1588   6.1588   6.3682   6.3682
     6.8519   6.8519   7.0017   7.0017   7.0417   7.0417   7.3684   7.3684
     7.5280   7.5280   8.0113   8.0113   8.4360   8.4360   8.6877   8.6877
     8.7480   8.7480   8.9748   8.9748   9.0987   9.0987   9.2267   9.2267
     9.5503   9.5503   9.7433   9.7433   9.7805   9.7805   9.8548   9.8548
    10.0988  10.0988  10.3243  10.3243  10.5733  10.5733  10.8513  10.8513
    10.8921  10.8921  10.9773  10.9773  11.5730  11.5730  11.6812  11.6812
    11.8737  11.8737  12.2621  12.2621  12.3599  12.3599  12.8067  12.8067
    13.1834  13.1834  13.3377  13.3377  13.3891  13.3891  13.5147  13.5147
    13.6177  13.6177  13.6958  13.6958  13.8928  13.8928  14.2723  14.2723
    14.7445  14.7445  15.0571  15.0571  15.3371  15.3371  15.5457  15.5457
    15.6381  15.6381  15.8487  15.8487  16.2973  16.2973  16.4580  16.4580
    16.5744  16.5744  16.7513  16.7513  16.9087  16.9087  17.0408  17.0408
    17.0823  17.0823  17.2327  17.2327  17.7335  17.7335  17.9403  17.9403
    18.1661  18.1661  18.3883  18.3883  18.5198  18.5198  18.5560  18.5560
    18.5773  18.5773  18.7253  18.7253  18.8135  18.8135  19.0274  19.0274
    19.0836  19.0836  19.2687  19.2687  19.3679  19.3679  19.3940  19.3940
    19.4886  19.4886  19.6740  19.6740  19.7276  19.7276  19.7912  19.7912
    19.9939  19.9939  20.2352  20.2352  20.3851  20.3851  20.4717  20.4717
    20.5591  20.5591  20.7259  20.7259  20.7587  20.7587  20.9889  20.9889
    21.1021  21.1021  21.2804  21.2804  21.3613  21.3613  21.3991  21.3991
    21.4996  21.4996  21.6771  21.6771  21.7288  21.7288  21.8514  21.8514
    22.0337  22.0337  22.1809  22.1809  22.3357  22.3357  22.6832  22.6832
    22.8822  22.8822  23.0200  23.0200  23.2572  23.2572  23.3137  23.3137
    23.4900  23.4900  23.5465  23.5465  23.6992  23.6992  23.8070  23.8070
    23.8653  23.8653  23.9927  23.9927  24.1683  24.1683  24.3910  24.3910
    24.5070  24.5070  24.5426  24.5426  24.6225  24.6225  24.7563  24.7563
    24.8569  24.8569  25.0691  25.0691  25.1959  25.1959  25.2676  25.2676
    25.3095  25.3095  25.3766  25.3766  25.7673  25.7673  25.8911  25.8911
    26.2732  26.2732  26.3304  26.3304  26.4708  26.4708  26.6149  26.6149
    26.8138  26.8138  26.8879  26.8879  26.9256  26.9256  27.0313  27.0313
    27.3348  27.3348  27.5566  27.5566  27.7028  27.7028  28.1817  28.1817
    28.2124  28.2124  28.2529  28.2529  28.3530  28.3530  28.5729  28.5729
    28.7256  28.7256  29.0344  29.0344  29.0646  29.0646  29.1023  29.1023
    29.3208  29.3208  29.3597  29.3597  29.4519  29.4519  29.5944  29.5944
    29.8309  29.8309  30.2374  30.2374  30.5388  30.5388  30.6690  30.6690
    30.8574  30.8574  30.9643  30.9643  31.0961  31.0961  31.1569  31.1569
    31.2946  31.2946  31.3624  31.3624  31.4077  31.4077  31.4501  31.4501
    31.6008  31.6008  31.7012  31.7012  31.8598  31.8598  31.8763  31.8763
    31.9717  31.9717  32.0945  32.0945  32.1802  32.1802  32.2940  32.2940
    32.3477  32.3477  32.3591  32.3591  32.4209  32.4209  32.5002  32.5002
    32.5445  32.5445  32.6957  32.6957  32.7696  32.7696  32.8804  32.8804
    33.0983  33.0983  33.1322  33.1322  33.3834  33.3834  33.4673  33.4673
    33.5796  33.5796  33.6629  33.6629  33.7249  33.7249  33.7527  33.7527
    33.8107  33.8107  33.8983  33.8983  34.2122  34.2122  34.3086  34.3086
    34.5011  34.5011  34.6064  34.6064  34.6800  34.6800  34.8310  34.8310
    34.8503  34.8503  34.9030  34.9030  35.0020  35.0020  35.1953  35.1953
    35.4438  35.4438  35.5217  35.5217  35.7431  35.7431  35.9037  35.9037
    35.9893  35.9893  36.3722  36.3722  36.3854  36.3854  36.4792  36.4792
    36.6017  36.6017  36.6734  36.6734  36.6992  36.6992  36.8663  36.8663
    37.3142  37.3142  37.5284  37.5284  37.5600  37.5600  37.6105  37.6105
    37.7618  37.7618  37.8265  37.8265  37.9034  37.9034  37.9909  37.9909
    38.0335  38.0335  38.1440  38.1440  38.2952  38.2952  38.3407  38.3407
    38.4730  38.4730  38.7730  38.7732  38.8821  38.8822  38.9378  38.9379
    39.0346  39.0352  39.1429  39.1446

          k = 0.1250 0.2165 0.0000 ( 45647 PWs)   bands (ev):

   -27.2774 -27.2770 -27.1999 -27.1998 -24.3318 -24.3309 -24.2480 -24.2478
   -24.2066 -24.2065 -18.4106 -18.4096 -18.0849 -18.0784 -17.8357 -17.8284
   -17.6628 -17.6486 -17.6051 -17.5926 -17.5511 -17.5436 -17.0513 -17.0497
   -13.5307 -13.5268  -8.5457  -8.4045  -6.7181  -6.4221  -5.9111  -5.8479
    -5.5782  -5.5546  -5.2705  -5.2429  -5.1441  -5.1264  -4.7194  -4.6440
    -3.8152  -3.4255  -1.9567  -1.4000  -0.9601  -0.7590   0.4589   0.6740
     1.6308   2.1218   2.5843   2.6706   2.8478   2.8786   3.4830   3.4919
     3.8797   3.9287   4.3677   4.3788   4.7152   4.7569   5.0493   5.0802
     5.8610   5.9086   6.0097   6.1529   6.1754   6.1858   6.2980   6.3578
     6.6517   6.6574   7.2288   7.2313   7.7451   7.7846   7.8825   7.8878
     8.3096   8.3230   8.3844   8.4196   8.7953   8.7991   9.1403   9.1646
     9.3527   9.3587   9.4222   9.4268   9.5780   9.5858   9.9526   9.9744
    10.0305  10.0413  10.1994  10.2251  10.5317  10.5828  10.7103  10.7187
    10.8151  10.8228  11.2796  11.2834  11.3588  11.3901  11.4868  11.5004
    11.6746  11.6788  11.8332  11.8427  12.1703  12.1954  12.3958  12.4049
    12.4528  12.5231  12.6475  12.6635  12.7138  12.7250  12.9001  12.9509
    13.0173  13.0367  13.1804  13.2602  13.2880  13.2984  13.3644  13.3887
    13.4900  13.5309  13.6189  13.6858  14.0171  14.0739  14.1074  14.1395
    14.5528  14.5551  14.6294  14.6355  14.7141  14.7400  14.8254  14.8431
    15.1618  15.1686  15.3149  15.3173  15.5589  15.5841  15.7621  15.7902
    15.8403  15.8593  15.9064  15.9164  15.9959  16.0008  16.1681  16.1826
    16.3918  16.3944  16.4697  16.4725  16.5095  16.5126  16.7304  16.7353
    16.8164  16.8420  16.9556  16.9670  17.3972  17.4004  17.4716  17.4774
    17.5335  17.5483  17.6835  17.6951  17.8015  17.8128  18.3144  18.3455
    18.4413  18.4981  18.5916  18.5967  18.8541  18.8584  18.9527  18.9598
    19.2390  19.2520  19.3723  19.3805  19.4369  19.4563  19.6142  19.6723
    19.8940  19.9397  20.0461  20.0697  20.1793  20.1925  20.3260  20.3494
    20.4603  20.4860  20.6160  20.6641  20.7535  20.8575  20.8663  21.0403
    21.1404  21.1493  21.2807  21.3136  21.4386  21.4811  21.6193  21.6557
    21.7728  21.7738  21.9801  22.0132  22.1482  22.1534  22.2358  22.2630
    22.3863  22.4480  22.7810  22.7964  23.0966  23.1019  23.1518  23.1643
    23.4327  23.4627  23.4767  23.5016  23.6757  23.7061  23.7416  23.7895
    23.8794  23.9253  23.9987  24.0393  24.1142  24.1177  24.3551  24.3839
    24.4322  24.4437  24.7266  24.7452  24.8266  24.8578  24.9696  24.9871
    25.2623  25.2971  25.3428  25.3683  25.4096  25.4249  25.6406  25.6602
    25.7362  25.7777  25.9391  25.9422  26.0540  26.0848  26.1592  26.1753
    26.2483  26.2582  26.3401  26.3665  26.6729  26.7047  26.7481  26.7697
    26.8519  26.8832  26.9724  26.9792  27.1116  27.1220  27.1832  27.1918
    27.2538  27.2762  27.3672  27.4117  27.4710  27.4873  27.5748  27.6434
    27.8250  27.8571  27.9985  28.0121  28.0839  28.0953  28.1498  28.1662
    28.2235  28.2707  28.6495  28.6701  28.6763  28.6983  28.8248  28.8473
    28.9432  28.9610  28.9907  29.0050  29.1433  29.1568  29.2602  29.2647
    29.3290  29.3354  29.6868  29.7376  29.8141  29.8520  30.0438  30.0565
    30.1044  30.1425  30.1564  30.1686  30.3326  30.3439  30.5597  30.5701
    30.7549  30.7589  30.8219  30.8476  31.1109  31.1162  31.2402  31.2468
    31.4025  31.4348  31.5534  31.5752  31.7361  31.7625  31.8845  31.9028
    31.9582  31.9679  32.1002  32.1088  32.1377  32.1413  32.1788  32.1816
    32.2695  32.2811  32.3532  32.3636  32.4720  32.4753  32.5887  32.5918
    32.6596  32.6628  32.7638  32.7715  32.8161  32.8223  32.9329  32.9417
    33.0717  33.1036  33.2047  33.2220  33.2428  33.2592  33.3467  33.3646
    33.4155  33.4414  33.5412  33.5569  33.5820  33.5979  33.8154  33.8184
    33.8641  33.8908  33.8995  33.9635  33.9662  33.9698  33.9744  34.0133
    34.2147  34.2433  34.4000  34.4237  34.4745  34.5287  34.6354  34.6727
    34.7142  34.7276  34.8441  34.8795  34.9070  34.9180  34.9494  34.9622
    35.1094  35.1397  35.2993  35.3066  35.4541  35.4607  35.7264  35.7506
    35.7654  35.8014  35.9237  35.9242  35.9316  35.9458  36.0609  36.0704
    36.1067  36.1393  36.2134  36.2229  36.2824  36.2849  36.4279  36.4316
    36.4636  36.4875  36.5609  36.5642  36.6775  36.7020  36.9550  36.9572
    37.0504  37.0556  37.1111  37.1226  37.1765  37.1924  37.2824  37.2874
    37.3998  37.4054  37.6395  37.6418  37.7106  37.7160  37.8470  37.8572
    37.9099  37.9153  38.0001  38.0101  38.0932  38.1052  38.1717  38.1730
    38.3216  38.3417  38.3829  38.3847  38.4950  38.5186  38.6132  38.6193
    38.6597  38.6627  38.7587  38.7691

          k = 0.1250 0.3608 0.0000 ( 45599 PWs)   bands (ev):

   -27.2772 -27.2768 -27.1996 -27.1993 -24.3312 -24.3304 -24.2484 -24.2479
   -24.2059 -24.2057 -18.4082 -18.4071 -18.0920 -18.0768 -17.8390 -17.8295
   -17.6743 -17.6502 -17.6057 -17.5898 -17.5217 -17.5149 -17.0358 -17.0343
   -13.3468 -13.3431  -8.9119  -8.7787  -6.8792  -6.6107  -6.1305  -6.0205
    -5.7564  -5.7224  -5.3435  -5.3062  -5.2071  -5.1772  -4.8948  -4.8478
    -4.0757  -3.7118  -1.6304  -0.9778  -0.7240  -0.4382   0.9929   1.2825
     2.0719   2.2479   2.7955   3.1480   3.4686   3.4845   3.9126   3.9285
     4.2438   4.2974   4.5597   4.5941   5.2544   5.3073   5.4721   5.4952
     5.7978   5.8777   6.0822   6.1176   6.2258   6.2464   6.4947   6.5097
     7.0778   7.1654   7.3990   7.4152   7.4763   7.5306   7.8089   7.8309
     7.9981   8.0140   8.1507   8.1833   8.2238   8.2505   8.6206   8.6383
     8.7404   8.7609   8.9609   8.9722   9.1043   9.1195   9.3980   9.4201
     9.7392   9.7596   9.9094   9.9315   9.9799   9.9838  10.1433  10.1557
    10.3741  10.4053  10.7062  10.7261  10.8967  10.9414  11.1352  11.1383
    11.4723  11.4759  11.6319  11.7014  11.8101  11.8289  12.1565  12.2057
    12.2775  12.2965  12.5236  12.5429  12.5875  12.5969  12.7018  12.7331
    13.0078  13.0309  13.2230  13.2369  13.4002  13.4469  13.6775  13.6941
    13.8436  13.8577  14.0552  14.0588  14.2699  14.2869  14.3661  14.4003
    14.5236  14.5575  14.7164  14.7601  14.8694  14.8904  14.9804  15.0078
    15.1577  15.1704  15.3911  15.4146  15.5004  15.5200  15.6986  15.7061
    16.0188  16.0315  16.0932  16.1086  16.4798  16.5335  16.5967  16.6233
    16.9250  16.9611  17.0591  17.0871  17.1496  17.1949  17.3530  17.3741
    17.4167  17.4368  17.6988  17.7165  17.7896  17.8011  17.9289  17.9404
    18.2019  18.2043  18.2768  18.2838  18.5405  18.5981  18.6555  18.6638
    18.8120  18.8369  18.9413  18.9646  19.0741  19.0827  19.1871  19.2549
    19.2838  19.2975  19.3567  19.3728  19.5545  19.6395  19.8563  19.8644
    19.9158  19.9456  20.1655  20.1673  20.2670  20.2928  20.3780  20.3894
    20.6296  20.6427  20.7620  20.7674  20.8662  20.8878  20.9618  21.0009
    21.1441  21.1556  21.3647  21.3701  21.4581  21.5017  21.6900  21.7153
    21.8287  21.8435  21.8998  21.9314  22.0670  22.0768  22.3536  22.3851
    22.4711  22.4890  22.6533  22.6691  22.8637  22.9166  23.0818  23.0977
    23.1661  23.1824  23.2968  23.3005  23.3989  23.4305  23.5050  23.5101
    23.5622  23.5953  23.7492  23.7655  23.8759  23.8810  24.1578  24.1721
    24.2169  24.2302  24.3622  24.3893  24.4744  24.4874  24.6273  24.6417
    24.7153  24.7220  24.8403  24.8685  24.9739  25.0117  25.1815  25.2033
    25.3301  25.3417  25.4117  25.4265  25.5322  25.5562  25.7022  25.7087
    26.0025  26.0087  26.3484  26.3592  26.3803  26.3949  26.5521  26.5872
    26.6410  26.6775  26.7399  26.7741  26.8103  26.8330  26.9853  26.9988
    27.0460  27.0854  27.2039  27.2182  27.4174  27.4409  27.5310  27.5494
    27.6186  27.6468  27.7092  27.7169  27.9403  27.9704  28.1102  28.1279
    28.1737  28.1879  28.2808  28.3089  28.3390  28.3508  28.4961  28.5238
    28.6023  28.6130  28.7374  28.7631  28.9493  28.9710  29.0625  29.1340
    29.2023  29.2115  29.2758  29.2820  29.3313  29.3612  29.4688  29.4923
    29.5443  29.5667  29.6936  29.7295  29.8111  29.8215  30.0290  30.0470
    30.1151  30.1651  30.2088  30.2405  30.4579  30.4743  30.5444  30.5760
    30.6801  30.6926  30.8670  30.8737  30.9849  31.0285  31.1382  31.1476
    31.2520  31.2766  31.3728  31.3984  31.4444  31.4545  31.5109  31.5161
    31.7045  31.7419  31.9248  31.9305  32.1115  32.1447  32.2547  32.2650
    32.3998  32.4115  32.4859  32.5089  32.7558  32.7716  32.8708  32.8851
    32.9373  32.9502  32.9648  32.9953  33.1150  33.1223  33.2665  33.2852
    33.3876  33.4081  33.4712  33.4904  33.6463  33.6657  33.7696  33.7773
    33.9149  33.9353  33.9795  33.9921  34.2098  34.2267  34.2877  34.2996
    34.3436  34.3518  34.5866  34.6008  34.6644  34.6894  34.8385  34.8870
    34.9069  34.9358  35.0484  35.0545  35.1440  35.1591  35.2482  35.2743
    35.3248  35.3547  35.4896  35.4995  35.5921  35.6000  35.7076  35.7137
    35.8265  35.8302  36.0143  36.0292  36.1170  36.1347  36.2572  36.2944
    36.5235  36.5434  36.5782  36.5801  36.7734  36.7981  36.8933  36.9259
    36.9800  37.0172  37.0947  37.1128  37.1483  37.1613  37.2444  37.2573
    37.3675  37.3886  37.4815  37.4946  37.5557  37.5620  37.6548  37.6641
    37.7102  37.7260  37.7837  37.8040  37.8527  37.8878  38.0053  38.0132
    38.1497  38.1642  38.2055  38.2174  38.3733  38.3950  38.4712  38.4833
    38.6331  38.6592  38.6955  38.7004  38.8095  38.8366  38.9106  38.9181
    39.0612  39.0762  39.1984  39.2041

          k = 0.1250 0.5052 0.0000 ( 45627 PWs)   bands (ev):

   -27.2770 -27.2768 -27.1995 -27.1990 -24.3306 -24.3302 -24.2487 -24.2480
   -24.2055 -24.2051 -18.4062 -18.4056 -18.0966 -18.0757 -17.8414 -17.8301
   -17.6796 -17.6508 -17.6056 -17.5889 -17.5011 -17.4982 -17.0244 -17.0236
   -13.1936 -13.1920  -9.2190  -9.1052  -6.9021  -6.7628  -6.2171  -6.1318
    -5.8753  -5.8222  -5.4078  -5.3626  -5.2367  -5.2002  -4.9876  -4.9475
    -4.2010  -3.8861  -1.5648  -0.9674  -0.5460  -0.2717   1.4909   1.6236
     2.4838   2.8095   3.1651   3.3574   4.0470   4.0894   4.4240   4.4924
     4.7556   4.8468   4.9306   5.0564   5.3785   5.4138   5.5457   5.6041
     5.7295   5.7607   6.0096   6.1128   6.3558   6.4534   6.5926   6.6558
     6.7131   6.7405   6.7927   6.8090   7.2869   7.3063   7.4779   7.4851
     7.6620   7.6796   7.7736   7.7869   8.4021   8.4129   8.4962   8.5562
     8.7196   8.7339   8.7410   8.8297   8.9877   9.0185   9.0483   9.0738
     9.4854   9.5053   9.5605   9.5945   9.7106   9.7232   9.8621   9.8692
    10.2098  10.2226  10.4271  10.4424  10.5893  10.6135  10.9740  10.9868
    11.1119  11.1582  11.6196  11.6303  11.7684  11.7750  11.8712  11.8834
    12.2227  12.2289  12.3584  12.3667  12.4666  12.4757  12.5556  12.5723
    13.0605  13.0649  13.2160  13.2246  13.6162  13.6357  13.8432  13.8553
    13.9465  13.9916  14.0385  14.0586  14.2434  14.2675  14.4180  14.4343
    14.8245  14.8672  14.9282  14.9397  15.0807  15.1140  15.2425  15.2826
    15.4942  15.5692  15.6335  15.6396  15.7807  15.8209  15.8703  15.8788
    16.0584  16.0832  16.3616  16.3858  16.5214  16.5796  16.6743  16.6973
    16.9932  17.0384  17.3133  17.3706  17.5292  17.5457  17.5989  17.6368
    17.7263  17.7462  17.7746  17.7890  18.1106  18.1345  18.2917  18.3032
    18.3627  18.4288  18.5819  18.6429  18.6912  18.7011  18.8242  18.8539
    18.8909  18.9012  19.0725  19.0852  19.1832  19.1894  19.2234  19.2375
    19.3895  19.4093  19.6475  19.6600  20.0099  20.0189  20.0827  20.0935
    20.1379  20.1483  20.3173  20.3305  20.5730  20.5911  20.6386  20.6465
    20.7810  20.7936  20.9257  20.9480  21.1603  21.1741  21.3351  21.3486
    21.3738  21.3851  21.4489  21.4639  21.5795  21.5882  21.6795  21.7475
    21.8204  21.8393  21.9858  21.9893  22.1160  22.1297  22.1635  22.1783
    22.3456  22.3483  22.4398  22.4484  22.5432  22.5502  22.6522  22.6621
    22.7318  22.7544  23.0007  23.0046  23.1047  23.1173  23.2558  23.2665
    23.3783  23.3893  23.5810  23.5957  23.6623  23.6774  23.9426  23.9539
    24.0447  24.0559  24.1311  24.1419  24.3433  24.3933  24.4700  24.4798
    24.6415  24.6472  24.7047  24.7206  24.9324  24.9395  24.9920  25.0090
    25.1091  25.1141  25.2739  25.2827  25.3560  25.3717  25.4504  25.4659
    25.6599  25.6689  25.9089  25.9267  26.0408  26.0464  26.1697  26.1760
    26.3556  26.3607  26.4844  26.4897  26.6089  26.6329  26.7172  26.7295
    26.9002  26.9114  27.0200  27.0318  27.1108  27.1175  27.1454  27.1585
    27.3751  27.3918  27.5611  27.5704  27.7115  27.7158  27.8305  27.8599
    27.9413  27.9575  28.0480  28.0917  28.2923  28.2944  28.3661  28.3820
    28.4752  28.4838  28.6282  28.6330  28.6589  28.6632  28.7979  28.8045
    28.9741  28.9844  29.0055  29.0514  29.0983  29.1373  29.3346  29.3403
    29.4279  29.4444  29.5054  29.5514  29.7758  29.7894  29.9852  30.0192
    30.0830  30.0981  30.1667  30.1726  30.2794  30.2982  30.3993  30.4111
    30.4708  30.4817  30.6450  30.7098  30.8442  30.8519  31.0529  31.1029
    31.1379  31.1414  31.1790  31.1917  31.3576  31.3841  31.5405  31.5837
    31.6319  31.6576  31.7253  31.7367  31.9281  31.9365  31.9669  32.0343
    32.1725  32.1996  32.3498  32.3743  32.4543  32.5012  32.5354  32.5459
    32.6942  32.7538  32.7770  32.7927  32.9602  33.0126  33.0746  33.1018
    33.2140  33.2595  33.3509  33.4003  33.4925  33.5180  33.6692  33.6890
    33.7932  33.8096  33.9233  33.9480  34.0789  34.0873  34.1924  34.2219
    34.3350  34.3499  34.5068  34.5234  34.6100  34.6248  34.7761  34.7788
    34.9812  35.0010  35.0822  35.0932  35.1300  35.1408  35.2028  35.2266
    35.3353  35.3583  35.5509  35.5583  35.6476  35.6706  35.7399  35.7549
    35.8938  35.9003  35.9226  35.9450  36.0832  36.1258  36.2145  36.2239
    36.3183  36.3304  36.4154  36.4342  36.5214  36.5471  36.5960  36.6103
    36.7415  36.7504  36.8253  36.8427  36.9733  36.9873  37.1297  37.1421
    37.2590  37.2805  37.3646  37.4282  37.5051  37.5223  37.6252  37.6314
    37.7436  37.7537  37.7959  37.8122  37.9846  37.9937  38.1401  38.1551
    38.3755  38.3913  38.4621  38.4668  38.5630  38.5763  38.7161  38.7345
    38.8205  38.8279  38.9056  38.9407  38.9831  39.0144  39.0467  39.0793
    39.2201  39.2434  39.3427  39.3630

          k = 0.2500 0.4330 0.0000 ( 45590 PWs)   bands (ev):

   -27.2770 -27.2767 -27.1996 -27.1989 -24.3307 -24.3301 -24.2489 -24.2478
   -24.2056 -24.2050 -18.4063 -18.4055 -18.1006 -18.0710 -17.8441 -17.8280
   -17.6844 -17.6416 -17.6121 -17.5864 -17.5020 -17.4978 -17.0247 -17.0236
   -13.1961 -13.1939  -9.2085  -9.0401  -6.9280  -6.7233  -6.2597  -6.1348
    -5.9768  -5.8879  -5.3553  -5.3178  -5.3015  -5.2545  -4.9606  -4.8987
    -4.3753  -4.0163  -1.1637  -0.5839  -0.1213   0.4234   1.1479   1.2931
     1.9382   2.0105   2.8958   3.0937   4.0416   4.0770   4.3829   4.4253
     4.7612   4.9263   5.0498   5.1733   5.3381   5.4601   5.7164   5.7558
     5.8547   5.8663   6.2458   6.3293   6.3738   6.4179   6.5540   6.6878
     6.7719   6.8138   6.9185   6.9421   7.2148   7.2237   7.4073   7.4308
     7.4947   7.5050   7.7115   7.7186   7.9470   7.9647   8.2627   8.2915
     8.5141   8.5330   8.7830   8.8130   8.9630   8.9793   9.1196   9.1665
     9.2454   9.2800   9.5727   9.6082  10.1614  10.1917  10.2850  10.2954
    10.5016  10.5055  10.5270  10.5428  10.7429  10.8266  11.0537  11.0609
    11.2305  11.2322  11.4049  11.4318  11.7043  11.8303  12.0728  12.0949
    12.1381  12.1537  12.4170  12.4260  12.8304  12.8807  13.1698  13.1821
    13.6138  13.6246  13.6586  13.6660  13.8155  13.8284  13.9242  13.9413
    14.0667  14.0807  14.1827  14.1944  14.2837  14.3124  14.3587  14.3629
    14.4459  14.4475  14.6476  14.6731  14.8029  14.8223  15.0092  15.0860
    15.2051  15.2145  15.3117  15.3343  15.4504  15.4718  15.7205  15.7367
    15.8202  15.8758  15.9399  16.0224  16.3487  16.4441  16.5868  16.6328
    16.6747  16.6930  16.7918  16.8000  16.9358  16.9572  17.3504  17.3713
    17.4960  17.5062  17.6427  17.6499  17.9459  17.9670  18.0567  18.0748
    18.3315  18.3688  18.4351  18.4386  18.5252  18.5463  18.9735  18.9872
    19.1062  19.1544  19.2979  19.3257  19.3550  19.3645  19.4640  19.4768
    19.5548  19.5850  19.6517  19.6785  19.8518  19.8607  19.9850  19.9897
    20.1188  20.1422  20.3210  20.3407  20.4302  20.4539  20.7637  20.7718
    20.7832  20.7924  20.8643  20.8743  20.9249  20.9289  21.0805  21.0830
    21.1195  21.1257  21.2429  21.2639  21.5085  21.5094  21.6823  21.7061
    21.9861  22.0025  22.0871  22.0931  22.3030  22.3133  22.4421  22.4491
    22.5495  22.5548  22.6427  22.6621  23.0982  23.1062  23.1669  23.1897
    23.3604  23.3678  23.5409  23.5508  23.5860  23.6144  23.6289  23.6344
    23.7899  23.8132  24.0005  24.0086  24.0805  24.0840  24.1960  24.2031
    24.3516  24.3673  24.4924  24.5078  24.5802  24.5973  24.6539  24.7202
    24.7987  24.8028  24.9501  24.9672  25.1041  25.1102  25.1780  25.1851
    25.3505  25.3706  25.4275  25.4398  25.5685  25.5785  25.7529  25.7674
    25.7825  25.7933  25.8935  25.9013  25.9667  25.9707  26.2295  26.2357
    26.4078  26.4597  26.6320  26.6418  26.6838  26.7133  26.8057  26.8148
    26.8690  26.8711  26.9705  26.9751  27.0816  27.0993  27.1243  27.1312
    27.2972  27.2995  27.3155  27.3318  27.4072  27.4105  27.5782  27.5854
    27.7112  27.7143  27.7981  27.8127  27.8897  27.8954  28.0076  28.0114
    28.0843  28.0911  28.1986  28.2237  28.3810  28.4133  28.5011  28.5127
    28.6830  28.7044  28.7246  28.7354  28.8418  28.8505  28.9895  29.0181
    29.1115  29.1192  29.1644  29.1701  29.2991  29.3458  29.5129  29.5361
    29.6038  29.6174  29.7146  29.7331  29.8021  29.8231  29.8932  29.9204
    30.1290  30.1649  30.4334  30.4581  30.4841  30.5286  30.6332  30.6670
    30.7263  30.7367  30.8238  30.8366  30.9958  31.0234  31.3538  31.4144
    31.5060  31.5534  31.5766  31.6204  31.9104  31.9809  32.0368  32.0975
    32.1483  32.1645  32.2586  32.2668  32.4884  32.5140  32.6435  32.6767
    32.7185  32.7461  32.8040  32.8278  32.8836  32.9081  33.1145  33.1767
    33.3988  33.4192  33.4363  33.4484  33.5965  33.6012  33.6606  33.6666
    33.8844  33.8914  33.9102  33.9264  34.0481  34.0824  34.1688  34.1763
    34.2374  34.2517  34.4013  34.4052  34.5342  34.5523  34.8592  34.8743
    34.9510  34.9539  35.2130  35.2169  35.2645  35.2759  35.6048  35.6155
    35.6632  35.6698  35.6880  35.7034  35.8546  35.8792  35.9451  35.9638
    36.0452  36.0781  36.1920  36.2184  36.3911  36.3926  36.5914  36.5961
    36.8848  36.8926  36.9429  36.9541  36.9989  37.0025  37.1077  37.1289
    37.2850  37.2990  37.3121  37.3136  37.5371  37.5437  37.7020  37.7087
    37.7892  37.8052  37.9697  37.9762  38.1091  38.1205  38.1362  38.1470
    38.2345  38.2573  38.4169  38.4309  38.4672  38.5039  38.5737  38.6077
    38.6544  38.6862  38.7394  38.7478  38.8662  38.8827  38.9486  38.9822
    39.1354  39.1416  39.1972  39.2067  39.3486  39.3889  39.4680  39.4883
    39.5088  39.5412  39.5583  39.5797

          k = 0.2500 0.5774 0.0000 ( 45540 PWs)   bands (ev):

   -27.2770 -27.2767 -27.1995 -27.1987 -24.3305 -24.3299 -24.2490 -24.2478
   -24.2054 -24.2048 -18.4055 -18.4049 -18.1040 -18.0685 -17.8464 -17.8274
   -17.6878 -17.6377 -17.6148 -17.5854 -17.4933 -17.4921 -17.0201 -17.0191
   -13.1269 -13.1263  -9.3382  -9.1505  -6.9790  -6.7445  -6.3138  -6.1675
    -6.0809  -5.9444  -5.3817  -5.3366  -5.3249  -5.2686  -4.9849  -4.9157
    -4.4691  -4.1308  -1.0165  -0.5112   0.1426   0.7081   1.4780   1.5707
     2.0859   2.3803   2.7746   2.9678   3.6769   3.7344   4.7587   4.8559
     4.9516   4.9690   5.1550   5.1629   5.4006   5.4197   5.7730   5.8283
     5.9420   5.9616   6.2090   6.2647   6.3354   6.3400   6.6733   6.8404
     6.9388   6.9629   7.0557   7.0810   7.0989   7.1121   7.2251   7.2675
     7.3353   7.3626   7.6103   7.6916   7.7122   7.8206   7.8569   7.8707
     8.2712   8.3243   8.6540   8.6559   8.8327   8.8575   9.2840   9.3115
     9.3685   9.3705   9.5146   9.5431   9.7656   9.7842  10.2044  10.2097
    10.4155  10.4473  10.5428  10.5844  10.8578  10.8770  11.1556  11.1580
    11.2271  11.2356  11.7261  11.7337  11.8638  11.9093  12.1393  12.1536
    12.3664  12.5206  12.6444  12.6644  12.7535  12.7734  12.8691  12.8903
    13.0606  13.0863  13.4274  13.4464  13.6223  13.6335  13.8203  13.8500
    14.0624  14.0796  14.1869  14.2101  14.3541  14.3584  14.4546  14.4715
    14.6339  14.6994  14.7385  14.7957  14.9086  14.9261  15.2851  15.3509
    15.4585  15.4769  15.8184  15.8194  15.8493  15.9058  15.9636  15.9841
    16.0135  16.0221  16.1162  16.1328  16.2992  16.3003  16.4218  16.4386
    16.6847  16.6890  16.8145  16.8367  17.0298  17.0343  17.1693  17.1975
    17.3346  17.3457  17.4365  17.4734  17.5651  17.5772  17.7382  17.7393
    17.8413  17.8511  17.9659  18.0113  18.3792  18.3908  18.4441  18.4735
    18.5338  18.5602  18.7641  18.7680  19.1607  19.1744  19.5358  19.5769
    19.6935  19.7305  19.8526  19.8643  19.9364  19.9408  20.0586  20.0656
    20.1316  20.1440  20.2838  20.3015  20.6603  20.6652  20.9058  20.9148
    21.1096  21.1123  21.3184  21.3363  21.5057  21.5111  21.7776  21.7945
    21.8805  21.8867  21.9235  21.9294  22.0822  22.0850  22.1859  22.1914
    22.3208  22.3247  22.5881  22.6068  22.6467  22.6580  22.6759  22.6823
    22.8101  22.8341  22.9800  22.9889  23.0524  23.0611  23.1867  23.1940
    23.3168  23.3196  23.3897  23.3946  23.5370  23.5437  23.5764  23.5838
    23.8832  23.8862  23.9269  23.9384  24.0661  24.0867  24.1256  24.1600
    24.1962  24.1992  24.2855  24.3084  24.5475  24.5495  24.6056  24.6145
    24.8435  24.8526  24.9138  24.9335  25.1187  25.1280  25.2464  25.2544
    25.3771  25.3786  25.3865  25.3990  25.4294  25.4313  25.5905  25.6066
    25.6431  25.6521  25.7803  25.7809  25.8389  25.8424  25.9760  25.9914
    26.1423  26.1783  26.2136  26.2197  26.3347  26.3470  26.3715  26.3741
    26.4812  26.5134  26.6371  26.6457  26.7024  26.7094  26.8330  26.8355
    26.8935  26.9074  27.1516  27.1966  27.2117  27.2262  27.5257  27.5385
    27.5804  27.6420  27.7064  27.7257  27.7790  27.7846  27.8758  27.8886
    28.0540  28.0936  28.1369  28.1466  28.1588  28.2068  28.2206  28.2664
    28.3677  28.3688  28.4420  28.4524  28.6947  28.7083  28.7273  28.7553
    28.8164  28.8298  28.9476  29.0137  29.1294  29.1488  29.2658  29.3042
    29.4440  29.4604  29.6387  29.6626  29.7622  29.7688  30.0771  30.0814
    30.3398  30.3411  30.4290  30.4933  30.5333  30.5484  30.6468  30.6576
    30.7139  30.7260  31.0035  31.0313  31.1765  31.2403  31.3091  31.3343
    31.3989  31.4372  31.5491  31.5817  31.7201  31.7899  31.8345  31.8544
    32.0190  32.0461  32.0969  32.1321  32.1813  32.2242  32.2451  32.3394
    32.3694  32.4103  32.4620  32.4880  32.6912  32.7184  32.9453  32.9505
    33.0725  33.0878  33.2196  33.2500  33.3651  33.3756  33.4635  33.4650
    33.6923  33.7014  33.9442  33.9539  33.9824  33.9989  34.0121  34.0519
    34.2813  34.2910  34.4933  34.5015  34.6884  34.7030  34.8741  34.8766
    35.0657  35.0761  35.0946  35.1051  35.1640  35.1840  35.3145  35.3503
    35.7200  35.7344  35.8397  35.8652  35.9162  35.9460  36.0548  36.1100
    36.1388  36.1510  36.2779  36.2990  36.4090  36.4376  36.5781  36.5849
    36.6236  36.6680  36.8922  36.9133  37.1621  37.1788  37.2251  37.2312
    37.3952  37.4050  37.4812  37.4955  37.6485  37.6549  37.7744  37.8239
    37.8567  37.8847  37.9925  37.9990  38.2022  38.2145  38.2274  38.2416
    38.4097  38.4160  38.6214  38.6317  38.7276  38.7455  38.8123  38.8228
    38.9375  38.9461  39.0468  39.0529  39.1101  39.1255  39.2463  39.2513
    39.2971  39.3165  39.4475  39.4529  39.5559  39.5730  39.6228  39.6385
    39.7742  39.7963  39.8730  39.8822

     highest occupied, lowest unoccupied level (ev):    -3.3778   -2.6371

!    total energy              =    -382.46180721 Ry
     estimated scf accuracy    <          5.4E-10 Ry

     The total energy is the sum of the following terms:
     one-electron contribution =   -1261.44745922 Ry
     hartree contribution      =     641.60940713 Ry
     xc contribution           =    -102.74550198 Ry
     ewald contribution        =     340.12174687 Ry

     convergence has been achieved in  10 iterations

     Writing all to output data dir ./outdir/GaBiCl2.save/

     init_run     :    580.40s CPU    164.64s WALL (       1 calls)
     electrons    :  22860.75s CPU   5874.56s WALL (       1 calls)

     Called by init_run:
     wfcinit      :    574.54s CPU    161.88s WALL (       1 calls)
     potinit      :      2.87s CPU      0.93s WALL (       1 calls)
     hinit0       :      2.81s CPU      1.64s WALL (       1 calls)

     Called by electrons:
     c_bands      :  19964.16s CPU   5131.20s WALL (      11 calls)
     sum_band     :   2880.39s CPU    737.37s WALL (      11 calls)
     v_of_rho     :      8.25s CPU      2.47s WALL (      11 calls)
     mix_rho      :      4.55s CPU      2.55s WALL (      11 calls)

     Called by c_bands:
     init_us_2    :      5.67s CPU      5.64s WALL (     230 calls)
     init_us_2:cp :      5.67s CPU      5.64s WALL (     230 calls)
     cegterg      :  19858.91s CPU   5087.24s WALL (     110 calls)

     Called by *egterg:
     cdiaghg      :    299.69s CPU    135.37s WALL (     456 calls)
     h_psi        :  13938.15s CPU   3537.01s WALL (     476 calls)
     g_psi        :     69.13s CPU     14.66s WALL (     356 calls)

     Called by h_psi:
     h_psi:calbec :    309.98s CPU     77.70s WALL (     476 calls)
     vloc_psi     :  13308.84s CPU   3373.25s WALL (     476 calls)
     add_vuspsi   :    243.31s CPU     62.45s WALL (     476 calls)

     General routines
     calbec       :    309.97s CPU     77.70s WALL (     476 calls)
     fft          :      5.88s CPU      2.04s WALL (     221 calls)
     ffts         :      2.23s CPU      0.73s WALL (      88 calls)
     fftw         :  11504.36s CPU   2926.17s WALL (  650072 calls)
     interpolate  :      3.79s CPU      1.16s WALL (      44 calls)

     Parallel routines

     PWSCF        :      6h30m CPU      1h40m WALL


   This run was terminated on:  16:54:27  16Oct2022            

=------------------------------------------------------------------------------=
   JOB DONE.
=------------------------------------------------------------------------------=
