
     Program PWSCF v.7.0 starts on 24Aug2022 at 22:37:38 
        Git branch: HEAD
        Last git commit: bcbb9787c58f17a467653707917172ffc4053dd9-dirty
        Last git commit date: Tue Dec 21 10:27:04 2021 +0000
        Last git commit subject: Merge branch pw2gt_cmplx into develop         

     This program is part of the open-source Quantum ESPRESSO suite
     for quantum simulation of materials; please cite
         "P. Giannozzi et al., J. Phys.:Condens. Matter 21 395502 (2009);
         "P. Giannozzi et al., J. Phys.:Condens. Matter 29 465901 (2017);
         "P. Giannozzi et al., J. Chem. Phys. 152 154105 (2020);
          URL http://www.quantum-espresso.org", 
     in publications or presentations arising from this work. More details at
     http://www.quantum-espresso.org/quote

     Parallel version (MPI & OpenMP), running on       6 processor cores
     Number of MPI processes:                 1
     Threads/MPI process:                     6

     MPI processes distributed on     1 nodes
     27023 MiB available memory on the printing compute node when the environment starts

     Reading input from nscf.in

     Current dimensions of program PWSCF are:
     Max number of different atomic species (ntypx) = 10
     Max number of k-points (npk) =  40000
     Max angular momentum in pseudopotentials (lmaxx) =  4

     Subspace diagonalization in iterative solution of the eigenvalue problem:
     a serial algorithm will be used


     G-vector sticks info
     --------------------
     sticks:   dense  smooth     PW     G-vecs:    dense   smooth      PW
     Sum        1189     475    151               270173    68333   11465

     Using Slab Decomposition



     bravais-lattice index     =            4
     lattice parameter (alat)  =       4.6487  a.u.
     unit-cell volume          =     707.3387 (a.u.)^3
     number of atoms/cell      =            2
     number of atomic types    =            1
     number of electrons       =         8.00
     number of Kohn-Sham states=          200
     kinetic-energy cutoff     =      80.0000  Ry
     charge density cutoff     =     800.0000  Ry
     scf convergence threshold =      1.0E-08
     mixing beta               =       0.3000
     number of iterations used =            8  plain     mixing
     Exchange-correlation= PBE
                           (   1   4   3   4   0   0   0)
     Non magnetic calculation with spin-orbit


     celldm(1)=   4.648726  celldm(2)=   0.000000  celldm(3)=   8.130081
     celldm(4)=   0.000000  celldm(5)=   0.000000  celldm(6)=   0.000000

     crystal axes: (cart. coord. in units of alat)
               a(1) = (   1.000000   0.000000   0.000000 )  
               a(2) = (  -0.500000   0.866025   0.000000 )  
               a(3) = (   0.000000   0.000000   8.130081 )  

     reciprocal axes: (cart. coord. in units 2 pi/alat)
               b(1) = (  1.000000  0.577350 -0.000000 )  
               b(2) = (  0.000000  1.154701  0.000000 )  
               b(3) = (  0.000000 -0.000000  0.123000 )  


     PseudoPot. # 1 for C  read from file:
     ../../pseudos/ONCVPSP/abinit/C_ONCV_PBE_fr.upf
     MD5 check sum: 289937457f5bc26ca1c868156df6bf43
     Pseudo is Norm-conserving + core correction, Zval =  4.0
     Generated using ONCVPSP code by D. R. Hamann
     Using radial grid of 1248 points,  6 beta functions with: 
                l(1) =   0
                l(2) =   0
                l(3) =   1
                l(4) =   1
                l(5) =   1
                l(6) =   1

     atomic species   valence    mass     pseudopotential
        C              4.00    12.01070     C ( 1.00)

     24 Sym. Ops., with inversion, found



   Cartesian axes

     site n.     atom                  positions (alat units)
         1           C   tau(   1) = (  -0.0000000   0.5773503   0.0000000  )
         2           C   tau(   2) = (   0.5000000   0.2886751   0.0000000  )

     number of k points=    61  Marzari-Vanderbilt smearing, width (Ry)=  0.0001
                       cart. coord. in units 2pi/alat
        k(    1) = (   0.0000000   0.0000000   0.0000000), wk =   0.0163934
        k(    2) = (   0.0111111   0.0192450   0.0000000), wk =   0.0163934
        k(    3) = (   0.0222222   0.0384900   0.0000000), wk =   0.0163934
        k(    4) = (   0.0333333   0.0577350   0.0000000), wk =   0.0163934
        k(    5) = (   0.0444444   0.0769800   0.0000000), wk =   0.0163934
        k(    6) = (   0.0555556   0.0962250   0.0000000), wk =   0.0163934
        k(    7) = (   0.0666667   0.1154701   0.0000000), wk =   0.0163934
        k(    8) = (   0.0777778   0.1347151   0.0000000), wk =   0.0163934
        k(    9) = (   0.0888889   0.1539601   0.0000000), wk =   0.0163934
        k(   10) = (   0.1000000   0.1732051   0.0000000), wk =   0.0163934
        k(   11) = (   0.1111111   0.1924501   0.0000000), wk =   0.0163934
        k(   12) = (   0.1222222   0.2116951   0.0000000), wk =   0.0163934
        k(   13) = (   0.1333333   0.2309401   0.0000000), wk =   0.0163934
        k(   14) = (   0.1444444   0.2501851   0.0000000), wk =   0.0163934
        k(   15) = (   0.1555556   0.2694301   0.0000000), wk =   0.0163934
        k(   16) = (   0.1666667   0.2886751   0.0000000), wk =   0.0163934
        k(   17) = (   0.1777778   0.3079201   0.0000000), wk =   0.0163934
        k(   18) = (   0.1888889   0.3271652   0.0000000), wk =   0.0163934
        k(   19) = (   0.2000000   0.3464102   0.0000000), wk =   0.0163934
        k(   20) = (   0.2111111   0.3656552   0.0000000), wk =   0.0163934
        k(   21) = (   0.2222222   0.3849002   0.0000000), wk =   0.0163934
        k(   22) = (   0.2333333   0.4041452   0.0000000), wk =   0.0163934
        k(   23) = (   0.2444444   0.4233902   0.0000000), wk =   0.0163934
        k(   24) = (   0.2555556   0.4426352   0.0000000), wk =   0.0163934
        k(   25) = (   0.2666667   0.4618802   0.0000000), wk =   0.0163934
        k(   26) = (   0.2777778   0.4811252   0.0000000), wk =   0.0163934
        k(   27) = (   0.2888889   0.5003702   0.0000000), wk =   0.0163934
        k(   28) = (   0.3000000   0.5196152   0.0000000), wk =   0.0163934
        k(   29) = (   0.3111111   0.5388603   0.0000000), wk =   0.0163934
        k(   30) = (   0.3222222   0.5581053   0.0000000), wk =   0.0163934
        k(   31) = (   0.3333333   0.5773503   0.0000000), wk =   0.0163934
        k(   32) = (   0.3222222   0.5773503   0.0000000), wk =   0.0163934
        k(   33) = (   0.3111111   0.5773503   0.0000000), wk =   0.0163934
        k(   34) = (   0.3000000   0.5773503   0.0000000), wk =   0.0163934
        k(   35) = (   0.2888889   0.5773503   0.0000000), wk =   0.0163934
        k(   36) = (   0.2777778   0.5773503   0.0000000), wk =   0.0163934
        k(   37) = (   0.2666667   0.5773503   0.0000000), wk =   0.0163934
        k(   38) = (   0.2555556   0.5773503   0.0000000), wk =   0.0163934
        k(   39) = (   0.2444444   0.5773503   0.0000000), wk =   0.0163934
        k(   40) = (   0.2333333   0.5773503   0.0000000), wk =   0.0163934
        k(   41) = (   0.2222222   0.5773503   0.0000000), wk =   0.0163934
        k(   42) = (   0.2111111   0.5773503   0.0000000), wk =   0.0163934
        k(   43) = (   0.2000000   0.5773503   0.0000000), wk =   0.0163934
        k(   44) = (   0.1888889   0.5773503   0.0000000), wk =   0.0163934
        k(   45) = (   0.1777778   0.5773503   0.0000000), wk =   0.0163934
        k(   46) = (   0.1666667   0.5773503   0.0000000), wk =   0.0163934
        k(   47) = (   0.1555556   0.5773503   0.0000000), wk =   0.0163934
        k(   48) = (   0.1444444   0.5773503   0.0000000), wk =   0.0163934
        k(   49) = (   0.1333333   0.5773503   0.0000000), wk =   0.0163934
        k(   50) = (   0.1222222   0.5773503   0.0000000), wk =   0.0163934
        k(   51) = (   0.1111111   0.5773503   0.0000000), wk =   0.0163934
        k(   52) = (   0.1000000   0.5773503   0.0000000), wk =   0.0163934
        k(   53) = (   0.0888889   0.5773503   0.0000000), wk =   0.0163934
        k(   54) = (   0.0777778   0.5773503   0.0000000), wk =   0.0163934
        k(   55) = (   0.0666667   0.5773503   0.0000000), wk =   0.0163934
        k(   56) = (   0.0555556   0.5773503   0.0000000), wk =   0.0163934
        k(   57) = (   0.0444444   0.5773503   0.0000000), wk =   0.0163934
        k(   58) = (   0.0333333   0.5773503   0.0000000), wk =   0.0163934
        k(   59) = (   0.0222222   0.5773503   0.0000000), wk =   0.0163934
        k(   60) = (   0.0111111   0.5773503   0.0000000), wk =   0.0163934
        k(   61) = (   0.0000000   0.5773503   0.0000000), wk =   0.0163934

     Dense  grid:   270173 G-vectors     FFT dimensions: (  45,  45, 360)

     Smooth grid:    68333 G-vectors     FFT dimensions: (  27,  27, 216)

     Estimated max dynamical RAM per process >       3.85 GB
 ----2D----2D----2D----2D----2D----2D----2D----2D----2D----2D----2D----2D
  The code is running with the 2D cutoff
  Please refer to:
  Sohier, T., Calandra, M., & Mauri, F. (2017), 
  Density functional perturbation theory for gated two-dimensional heterostructures:
  Theoretical developments and application to flexural phonons in graphene.
  Physical Review B, 96(7), 75448. https://doi.org/10.1103/PhysRevB.96.075448
 ----2D----2D----2D----2D----2D----2D----2D----2D----2D----2D----2D----2D

     Initial potential from superposition of free atoms

     starting charge       7.9999, renormalised to       8.0000

     negative rho (up, down):  3.544E-07 0.000E+00
     Starting wfcs are   16 randomized atomic wfcs +  184 random wfcs

     total cpu time spent up to now is       74.6 secs

     Self-consistent Calculation

     iteration #  1     ecut=    80.00 Ry     beta= 0.30
     Davidson diagonalization with overlap
     ethr =  1.00E-02,  avg # of iterations =  8.3

     negative rho (up, down):  1.187E-07 0.000E+00

     total cpu time spent up to now is      524.1 secs

     total energy              =     -24.06339867 Ry
     estimated scf accuracy    <       0.20646137 Ry

     iteration #  2     ecut=    80.00 Ry     beta= 0.30
     Davidson diagonalization with overlap
     ethr =  2.58E-03,  avg # of iterations =  1.2

     negative rho (up, down):  7.829E-06 0.000E+00

     total cpu time spent up to now is      707.1 secs

     total energy              =     -24.03078430 Ry
     estimated scf accuracy    <       0.06711649 Ry

     iteration #  3     ecut=    80.00 Ry     beta= 0.30
     Davidson diagonalization with overlap
     ethr =  8.39E-04,  avg # of iterations =  3.0

     negative rho (up, down):  9.576E-06 0.000E+00

     total cpu time spent up to now is      906.0 secs

     total energy              =     -24.04113940 Ry
     estimated scf accuracy    <       0.00099637 Ry

     iteration #  4     ecut=    80.00 Ry     beta= 0.30
     Davidson diagonalization with overlap
     ethr =  1.25E-05,  avg # of iterations =  7.8

     negative rho (up, down):  7.298E-06 0.000E+00

     total cpu time spent up to now is     1125.1 secs

     total energy              =     -24.04114236 Ry
     estimated scf accuracy    <       0.00020703 Ry

     iteration #  5     ecut=    80.00 Ry     beta= 0.30
     Davidson diagonalization with overlap
     c_bands:  2 eigenvalues not converged
     ethr =  2.59E-06,  avg # of iterations =  4.3

     negative rho (up, down):  5.085E-06 0.000E+00

     total cpu time spent up to now is     1324.8 secs

     total energy              =     -24.04117329 Ry
     estimated scf accuracy    <       0.00000055 Ry

     iteration #  6     ecut=    80.00 Ry     beta= 0.30
     Davidson diagonalization with overlap
     ethr =  6.84E-09,  avg # of iterations =  2.0

     negative rho (up, down):  3.450E-06 0.000E+00

     total cpu time spent up to now is     1513.5 secs

     total energy              =     -24.04117341 Ry
     estimated scf accuracy    <       0.00000026 Ry

     iteration #  7     ecut=    80.00 Ry     beta= 0.30
     Davidson diagonalization with overlap
     ethr =  3.28E-09,  avg # of iterations =  1.5

     total cpu time spent up to now is     1696.6 secs

     End of self-consistent calculation

          k = 0.0000 0.0000 0.0000 (  8603 PWs)   bands (ev):

   -23.6238 -23.6238 -11.7040 -11.7040  -7.0750  -7.0750  -7.0659  -7.0659
    -0.9089  -0.9089  -0.1443  -0.1443   0.7578   0.7578   1.1811   1.1811
     2.7085   2.7085   3.4904   3.4904   4.4150   4.4150   4.4228   4.4228
     5.4022   5.4022   6.6236   6.6236   7.4734   7.4734   8.6698   8.6698
     8.7425   8.7425  10.5194  10.5194  12.6633  12.6633  15.1223  15.1223
    17.2298  17.2298  18.5724  18.5724  20.3386  20.3386  22.5529  22.5529
    24.4492  24.4492  24.4492  24.4492  25.6758  25.6758  27.7408  27.7408
    27.7408  27.7408  28.6861  28.6861  29.3636  29.3636  31.2073  31.2073
    31.2080  31.2080  31.7355  31.7355  31.7368  31.7368  32.1894  32.1894
    32.3905  32.3905  32.7830  32.7830  33.0686  33.0686  33.1923  33.1923
    33.1923  33.1923  33.3761  33.3761  33.3761  33.3761  33.6998  33.6998
    33.6999  33.6999  33.7645  33.7645  33.7648  33.7648  33.8967  33.8967
    33.9992  33.9992  34.0029  34.0029  34.1053  34.1053  34.5343  34.5343
    34.5343  34.5343  34.7922  34.7922  34.7922  34.7922  35.2903  35.2903
    35.4404  35.4404  35.4406  35.4406  35.5400  35.5400  35.5407  35.5407
    35.6176  35.6176  35.8551  35.8551  36.1342  36.1342  36.2187  36.2187
    36.9571  36.9571  36.9571  36.9571  37.2816  37.2816  37.2816  37.2816
    37.3752  37.3752  38.0190  38.0190  38.0193  38.0193  38.0485  38.0485
    38.0498  38.0498  38.5609  38.5609  38.9951  38.9951  39.1256  39.1256
    40.0942  40.0942  40.2413  40.2413  40.2413  40.2413  40.6376  40.6376
    40.6376  40.6376  41.1122  41.1122  41.1145  41.1145  41.2953  41.2953
    41.2957  41.2957  41.9123  41.9123  42.2105  42.2105  42.3607  42.3607
    42.9514  42.9514  43.3827  43.3827  44.3161  44.3161  44.3161  44.3161
    44.4366  44.4366  44.4407  44.4407  44.7760  44.7760  44.7760  44.7760
    44.9582  44.9582  45.1614  45.1614  45.1618  45.1618  45.8388  45.8390

          k = 0.0111 0.0192 0.0000 (  8633 PWs)   bands (ev):

   -23.6150 -23.6150 -11.6935 -11.6935  -7.1083  -7.1083  -7.0889  -7.0889
    -0.8969  -0.8969  -0.1322  -0.1322   0.7700   0.7700   1.1932   1.1932
     2.7205   2.7205   3.5024   3.5024   4.4239   4.4239   4.4580   4.4580
     5.4147   5.4147   6.6354   6.6354   7.4424   7.4424   8.6849   8.6849
     8.7547   8.7547  10.5307  10.5307  12.6753  12.6753  15.1326  15.1326
    17.2418  17.2418  18.6015  18.6015  20.3439  20.3439  22.5646  22.5646
    24.3375  24.3375  24.3652  24.3652  25.6051  25.6051  27.7156  27.7156
    27.8667  27.8667  28.6974  28.6974  29.6093  29.6093  30.5042  30.5042
    30.7040  30.7040  31.7740  31.7740  31.8341  31.8341  31.8815  31.8815
    32.2192  32.2192  32.5437  32.5437  32.6992  32.6992  32.8580  32.8580
    32.9165  32.9165  33.1477  33.1477  33.3070  33.3070  33.4435  33.4435
    33.4577  33.4577  33.8190  33.8190  33.8664  33.8664  34.0411  34.0411
    34.1243  34.1243  34.4661  34.4661  34.5046  34.5046  34.6022  34.6022
    34.6423  34.6423  34.9043  34.9043  34.9456  34.9456  34.9710  34.9710
    35.3779  35.3779  35.6113  35.6113  35.6585  35.6585  35.7555  35.7555
    35.7702  35.7702  35.9563  35.9563  36.2256  36.2256  36.6423  36.6423
    36.7442  36.7442  36.8781  36.8781  37.1302  37.1302  37.1707  37.1707
    37.3388  37.3388  37.8814  37.8814  38.2298  38.2298  38.3266  38.3266
    38.3736  38.3736  38.7593  38.7593  39.2906  39.2906  39.3781  39.3781
    39.3994  39.3994  40.1148  40.1148  40.1948  40.1948  40.3842  40.3842
    40.5279  40.5279  41.1971  41.1971  41.2772  41.2772  41.3831  41.3831
    41.6442  41.6442  42.3475  42.3475  42.5741  42.5741  42.5869  42.5869
    42.6258  42.6258  43.3906  43.3906  43.7103  43.7103  44.0524  44.0524
    44.1689  44.1689  44.1877  44.1877  44.5972  44.5972  44.9437  44.9437
    45.3036  45.3036  45.4111  45.4111  45.8204  45.8205  46.2027  46.2028

          k = 0.0222 0.0385 0.0000 (  8633 PWs)   bands (ev):

   -23.5886 -23.5886 -11.6619 -11.6619  -7.2154  -7.2154  -7.1483  -7.1483
    -0.8611  -0.8611  -0.0959  -0.0959   0.8064   0.8064   1.2295   1.2295
     2.7564   2.7564   3.5384   3.5384   4.4412   4.4412   4.5708   4.5708
     5.4519   5.4519   6.6707   6.6707   7.3501   7.3501   8.7312   8.7312
     8.7910   8.7910  10.5648  10.5648  12.7114  12.7114  15.1635  15.1635
    17.2777  17.2777  18.6879  18.6879  20.3579  20.3579  22.5997  22.5997
    23.9847  23.9847  24.1461  24.1461  25.4960  25.4960  27.6835  27.6835
    28.2086  28.2086  28.7312  28.7312  29.5336  29.5336  29.8360  29.8360
    30.2124  30.2124  30.8913  30.8913  31.1892  31.1892  31.5097  31.5097
    31.5900  31.5900  31.9491  31.9491  32.0058  32.0058  32.1218  32.1218
    32.5209  32.5209  33.1965  33.1965  33.2310  33.2310  33.3236  33.3236
    33.5057  33.5057  33.7470  33.7470  33.7900  33.7900  34.0315  34.0315
    34.0895  34.0895  34.1062  34.1062  34.4739  34.4739  34.7020  34.7020
    34.8827  34.8827  35.3476  35.3476  35.3617  35.3617  35.5966  35.5966
    35.6531  35.6531  35.6904  35.6904  35.7181  35.7181  35.9329  35.9329
    35.9930  35.9930  36.2148  36.2148  36.3586  36.3586  36.5146  36.5146
    36.9533  36.9533  37.0817  37.0817  37.2324  37.2324  37.7784  37.7784
    37.8209  37.8209  37.8529  37.8529  38.2705  38.2705  38.3764  38.3764
    38.4221  38.4221  38.9361  38.9361  39.3782  39.3782  39.4243  39.4243
    39.5125  39.5125  40.1647  40.1647  40.2299  40.2299  40.3854  40.3854
    40.5268  40.5268  41.4251  41.4251  41.5519  41.5519  41.6220  41.6220
    41.7254  41.7254  42.3751  42.3751  42.7515  42.7515  42.8648  42.8648
    43.1676  43.1676  43.1741  43.1741  43.3649  43.3649  43.5928  43.5928
    44.0463  44.0463  44.1631  44.1631  44.6255  44.6255  44.9332  44.9332
    45.6429  45.6429  45.9814  45.9814  46.1451  46.1451  46.7953  46.8119

          k = 0.0333 0.0577 0.0000 (  8641 PWs)   bands (ev):

   -23.5448 -23.5448 -11.6092 -11.6092  -7.3892  -7.3892  -7.2449  -7.2449
    -0.8014  -0.8014  -0.0354  -0.0354   0.8673   0.8673   1.2901   1.2901
     2.8163   2.8163   3.5983   3.5983   4.4701   4.4701   4.7506   4.7506
     5.5139   5.5139   6.7296   6.7296   7.1985   7.1985   8.8109   8.8109
     8.8516   8.8516  10.6216  10.6216  12.7714  12.7714  15.2143  15.2143
    17.3372  17.3372  18.8284  18.8284  20.3736  20.3736  22.6584  22.6584
    23.4322  23.4322  23.8527  23.8527  25.4573  25.4573  27.6704  27.6704
    28.5556  28.5556  28.6962  28.6962  28.7832  28.7832  28.9147  28.9147
    29.9145  29.9145  30.1775  30.1775  30.5758  30.5758  30.6061  30.6061
    30.9692  30.9692  31.1828  31.1828  31.5571  31.5571  31.8301  31.8301
    31.9621  31.9621  32.4391  32.4391  32.7016  32.7016  33.0996  33.0996
    33.2554  33.2554  33.6347  33.6347  33.7854  33.7854  33.8753  33.8753
    33.9066  33.9066  34.4112  34.4112  34.6511  34.6511  34.7224  34.7224
    34.9626  34.9626  35.1486  35.1486  35.2353  35.2353  35.3057  35.3057
    35.7076  35.7076  35.8136  35.8136  36.0262  36.0262  36.1721  36.1721
    36.7402  36.7402  36.7816  36.7816  37.1337  37.1337  37.1636  37.1636
    37.2250  37.2250  37.3181  37.3181  37.4797  37.4797  37.8871  37.8871
    38.1300  38.1300  38.1359  38.1359  38.1844  38.1844  38.4642  38.4642
    38.5777  38.5777  39.0438  39.0438  39.3605  39.3605  39.5011  39.5011
    40.2675  40.2675  40.4581  40.4581  40.5635  40.5635  41.0402  41.0402
    41.2133  41.2133  41.2267  41.2267  41.2969  41.2969  41.5734  41.5734
    41.6027  41.6027  42.3680  42.3680  42.4852  42.4852  42.7209  42.7209
    43.0596  43.0596  43.4260  43.4260  44.0327  44.0327  44.3525  44.3525
    44.3574  44.3574  44.4203  44.4203  44.7163  44.7163  45.1778  45.1778
    45.4937  45.4937  45.6303  45.6303  46.3010  46.3011  46.5683  46.5685

          k = 0.0444 0.0770 0.0000 (  8651 PWs)   bands (ev):

   -23.4833 -23.4833 -11.5355 -11.5355  -7.6215  -7.6215  -7.3780  -7.3780
    -0.7177  -0.7177   0.0493   0.0493   0.9524   0.9524   1.3748   1.3748
     2.9001   2.9001   3.6822   3.6822   4.5123   4.5123   4.9852   4.9852
     5.6002   5.6002   6.8119   6.8119   6.9906   6.9906   8.9276   8.9276
     8.9362   8.9362  10.7007  10.7007  12.8554  12.8554  15.2843  15.2843
    17.4199  17.4199  19.0173  19.0173  20.3733  20.3733  22.7407  22.7407
    22.7948  22.7948  23.5301  23.5301  25.4878  25.4878  27.5913  27.5913
    27.6509  27.6509  27.9791  27.9791  28.8692  28.8692  28.9467  28.9467
    29.2120  29.2120  29.2635  29.2635  29.5711  29.5711  29.6291  29.6291
    30.2381  30.2381  30.5555  30.5555  31.3440  31.3440  31.3798  31.3798
    31.7958  31.7958  32.1064  32.1064  32.2521  32.2521  32.4536  32.4536
    32.9821  32.9821  33.3523  33.3523  33.4941  33.4941  33.8951  33.8951
    33.9283  33.9283  34.0854  34.0854  34.3023  34.3023  34.4430  34.4430
    34.6408  34.6408  35.1889  35.1889  35.6394  35.6394  35.6962  35.6962
    35.7552  35.7552  35.7667  35.7667  36.1326  36.1326  36.4479  36.4479
    36.5639  36.5639  37.0194  37.0194  37.3086  37.3086  37.3668  37.3668
    37.5359  37.5359  37.7862  37.7862  37.9828  37.9828  38.2762  38.2762
    38.2822  38.2822  38.5108  38.5109  38.7867  38.7867  38.7967  38.7967
    39.3112  39.3112  39.5308  39.5308  40.0967  40.0967  40.0973  40.0973
    40.2235  40.2235  40.4097  40.4097  40.6136  40.6136  41.0464  41.0464
    41.1593  41.1593  41.4633  41.4633  41.6127  41.6127  41.6703  41.6703
    41.9156  41.9156  42.5825  42.5825  42.7231  42.7231  42.7262  42.7262
    43.4146  43.4146  43.5996  43.5996  44.5804  44.5804  44.6129  44.6129
    44.8127  44.8127  44.8826  44.8826  45.1007  45.1007  45.2870  45.2870
    45.4255  45.4255  45.4580  45.4580  45.6801  45.6801  46.2410  46.2411

          k = 0.0556 0.0962 0.0000 (  8639 PWs)   bands (ev):

   -23.4044 -23.4044 -11.4410 -11.4410  -7.9031  -7.9031  -7.5455  -7.5455
    -0.6102  -0.6102   0.1581   0.1581   1.0619   1.0619   1.4838   1.4838
     3.0079   3.0079   3.7900   3.7900   4.5692   4.5692   5.2595   5.2595
     5.7107   5.7107   6.7305   6.7305   6.9175   6.9175   9.0449   9.0449
     9.0867   9.0867  10.8020  10.8020  12.9631  12.9631  15.3718  15.3718
    17.5255  17.5255  19.2464  19.2464  20.3124  20.3124  22.1891  22.1891
    22.8469  22.8469  23.2008  23.2008  25.5655  25.5655  26.6462  26.6462
    27.0651  27.0651  27.5196  27.5196  28.0042  28.0042  28.3683  28.3683
    28.5882  28.5882  28.6627  28.6627  28.9719  28.9719  29.2643  29.2643
    29.6466  29.6466  29.8986  29.8986  30.4279  30.4279  30.4996  30.4996
    31.6091  31.6091  31.8784  31.8784  32.1374  32.1374  32.1608  32.1608
    32.7463  32.7463  33.0896  33.0896  33.3428  33.3428  33.4726  33.4726
    33.5818  33.5818  34.1119  34.1119  34.1455  34.1455  34.4709  34.4709
    34.6064  34.6064  35.1081  35.1081  35.1391  35.1391  35.8196  35.8196
    35.8326  35.8326  35.8819  35.8819  35.8835  35.8835  36.3122  36.3122
    36.4745  36.4745  37.0620  37.0620  37.3012  37.3012  37.4159  37.4159
    37.6601  37.6601  38.4529  38.4529  38.5095  38.5095  38.7042  38.7042
    39.0402  39.0402  39.1316  39.1316  39.3830  39.3830  39.5269  39.5269
    39.5418  39.5418  40.0718  40.0718  40.2416  40.2416  40.3908  40.3908
    40.4701  40.4701  40.5332  40.5332  40.7265  40.7265  41.1762  41.1762
    41.2472  41.2472  41.7713  41.7713  42.1055  42.1055  42.1370  42.1370
    42.3754  42.3754  43.1293  43.1293  43.2564  43.2564  43.3091  43.3091
    43.7343  43.7343  43.8394  43.8394  44.3567  44.3567  44.3782  44.3782
    44.7192  44.7192  44.8201  44.8201  44.9660  44.9660  45.3724  45.3724
    45.8868  45.8868  45.9051  45.9051  46.3889  46.3890  46.3972  46.3973

          k = 0.0667 0.1155 0.0000 (  8627 PWs)   bands (ev):

   -23.3081 -23.3081 -11.3258 -11.3258  -8.2249  -8.2249  -7.7450  -7.7450
    -0.4788  -0.4788   0.2911   0.2911   1.1958   1.1958   1.6169   1.6169
     3.1398   3.1398   3.9217   3.9217   4.6419   4.6419   5.5570   5.5570
     5.8452   5.8452   6.4228   6.4228   7.0465   7.0465   9.1775   9.1775
     9.2944   9.2944  10.9250  10.9250  13.0944  13.0944  15.4742  15.4742
    17.6537  17.6537  19.5040  19.5040  20.0989  20.0989  21.7468  21.7468
    22.8717  22.8717  22.9774  22.9774  25.6770  25.6770  25.7228  25.7228
    26.1751  26.1751  26.9710  26.9710  27.0880  27.0880  27.6289  27.6289
    27.7185  27.7185  27.8595  27.8595  28.3723  28.3723  28.8715  28.8715
    29.0969  29.0969  29.4842  29.4842  29.6013  29.6013  30.2828  30.2828
    30.9476  30.9476  31.0452  31.0452  31.8655  31.8655  31.9847  31.9847
    32.4436  32.4436  32.7928  32.7928  33.1765  33.1765  33.6364  33.6364
    33.6371  33.6371  33.9304  33.9304  34.2350  34.2350  34.2391  34.2391
    34.5332  34.5332  34.8737  34.8737  35.1289  35.1289  35.3805  35.3805
    35.4911  35.4911  35.9737  35.9737  35.9830  35.9830  36.0847  36.0847
    36.2082  36.2082  37.0291  37.0291  37.5470  37.5470  37.9885  37.9885
    38.2276  38.2276  38.3296  38.3296  38.4819  38.4819  38.6279  38.6279
    38.6892  38.6892  39.4481  39.4481  39.8521  39.8521  39.8824  39.8824
    40.3741  40.3741  40.6119  40.6119  40.6184  40.6184  40.7566  40.7566
    40.7739  40.7739  41.5497  41.5497  41.5646  41.5646  41.6514  41.6514
    42.0072  42.0072  42.1719  42.1719  42.3691  42.3691  42.3826  42.3826
    42.5387  42.5387  43.6505  43.6505  43.6679  43.6679  43.7206  43.7206
    43.7744  43.7744  43.8802  43.8802  44.3371  44.3371  44.5604  44.5604
    44.8148  44.8148  44.8584  44.8584  45.0690  45.0690  45.5767  45.5767
    46.0511  46.0511  46.7089  46.7090  46.8164  46.8165  47.3636  47.3641

          k = 0.0778 0.1347 0.0000 (  8613 PWs)   bands (ev):

   -23.1944 -23.1944 -11.1899 -11.1899  -8.5782  -8.5782  -7.9738  -7.9738
    -0.3234  -0.3234   0.4482   0.4482   1.3540   1.3540   1.7742   1.7742
     3.2956   3.2956   4.0771   4.0771   4.7320   4.7320   5.8614   5.8614
     6.0034   6.0034   6.0729   6.0729   7.1984   7.1984   9.3338   9.3338
     9.5571   9.5571  11.0691  11.0691  13.2493  13.2493  15.5864  15.5864
    17.8041  17.8041  19.6677  19.6677  19.7733  19.7733  21.5570  21.5570
    22.5395  22.5395  23.1319  23.1319  24.8224  24.8224  25.3182  25.3182
    25.8024  25.8024  26.1491  26.1491  26.2027  26.2027  26.6937  26.6937
    26.7998  26.7998  27.3185  27.3185  27.5014  27.5014  28.4493  28.4493
    28.5609  28.5609  28.7082  28.7082  29.2467  29.2467  29.7115  29.7115
    30.2047  30.2047  31.1605  31.1605  31.1882  31.1882  31.2018  31.2018
    32.4797  32.4797  32.6491  32.6491  33.0581  33.0581  33.0582  33.0582
    33.7541  33.7541  34.0082  34.0082  34.2786  34.2786  34.2990  34.2990
    34.3243  34.3243  34.5712  34.5712  34.8287  34.8287  35.1438  35.1438
    35.3022  35.3022  36.1003  36.1003  36.2124  36.2124  36.3098  36.3098
    36.5523  36.5523  36.6474  36.6474  37.5151  37.5151  37.7730  37.7730
    37.8408  37.8408  38.2539  38.2539  38.2765  38.2765  38.7158  38.7158
    38.8031  38.8031  39.6705  39.6705  39.9401  39.9401  40.2035  40.2035
    40.7635  40.7635  41.4547  41.4547  41.5269  41.5269  41.6619  41.6619
    41.7548  41.7548  41.8091  41.8091  41.9393  41.9393  42.0318  42.0318
    42.0697  42.0697  42.7606  42.7606  42.9195  42.9195  42.9437  42.9437
    42.9722  42.9722  43.4346  43.4346  43.5070  43.5070  43.6388  43.6388
    44.1976  44.1976  44.3991  44.3991  44.9216  44.9216  45.1015  45.1015
    45.2929  45.2929  45.4154  45.4154  45.6553  45.6553  46.0512  46.0512
    46.3894  46.3894  46.8832  46.8832  47.4776  47.4779  47.6167  47.6178

          k = 0.0889 0.1540 0.0000 (  8593 PWs)   bands (ev):

   -23.0633 -23.0633 -11.0337 -11.0337  -8.9553  -8.9553  -8.2289  -8.2289
    -0.1441  -0.1441   0.6293   0.6293   1.5365   1.5365   1.9555   1.9555
     3.4755   3.4755   4.2562   4.2562   4.8403   4.8403   5.6865   5.6865
     6.1582   6.1582   6.1853   6.1853   7.3731   7.3731   9.5139   9.5139
     9.8799   9.8799  11.2332  11.2332  13.4274  13.4274  15.6989  15.6989
    17.9762  17.9762  19.1008  19.1008  20.0304  20.0304  21.5573  21.5573
    22.1939  22.1939  23.3082  23.3082  23.9459  23.9459  24.5074  24.5074
    25.2373  25.2373  25.3506  25.3506  25.7829  25.7829  25.9107  25.9107
    25.9989  25.9989  26.5541  26.5541  26.6699  26.6699  27.6605  27.6605
    27.8368  27.8368  28.2510  28.2510  28.9093  28.9093  29.4188  29.4188
    29.4862  29.4862  30.2798  30.2798  30.3990  30.3990  31.3555  31.3555
    32.3847  32.3847  32.5904  32.5904  32.6177  32.6177  32.6184  32.6184
    33.6344  33.6344  33.9006  33.9006  33.9018  33.9018  34.2586  34.2586
    34.4003  34.4003  34.5901  34.5901  34.6692  34.6692  35.3792  35.3792
    35.5484  35.5484  36.0116  36.0116  36.2325  36.2325  36.3598  36.3598
    36.4480  36.4480  36.7879  36.7879  37.3457  37.3457  37.4704  37.4704
    37.6369  37.6369  37.8818  37.8818  38.0362  38.0362  38.8822  38.8822
    39.0796  39.0796  40.0800  40.0800  40.1914  40.1914  40.6011  40.6011
    40.9120  40.9120  41.2085  41.2085  41.3731  41.3731  41.6068  41.6068
    41.8994  41.8994  42.4382  42.4382  42.6947  42.6947  42.7562  42.7562
    42.8113  42.8113  43.0307  43.0307  43.2584  43.2584  43.2867  43.2867
    43.8210  43.8210  43.8794  43.8794  44.4354  44.4354  44.4605  44.4605
    44.6439  44.6439  44.7785  44.7785  45.3333  45.3333  45.4051  45.4051
    45.9040  45.9040  46.2196  46.2196  46.3752  46.3752  46.6059  46.6059
    46.8104  46.8104  47.0680  47.0680  47.1644  47.1644  47.2813  47.2813

          k = 0.1000 0.1732 0.0000 (  8581 PWs)   bands (ev):

   -22.9150 -22.9150 -10.8574 -10.8574  -9.3496  -9.3496  -8.5070  -8.5070
     0.0590   0.0590   0.8345   0.8345   1.7434   1.7434   2.1609   2.1609
     3.6794   3.6794   4.4589   4.4589   4.9678   4.9678   5.2691   5.2691
     6.3907   6.3907   6.4372   6.4372   7.5702   7.5702   9.7175   9.7175
    10.2645  10.2645  11.4158  11.4158  13.6287  13.6287  15.7918  15.7918
    18.1695  18.1695  18.5164  18.5164  20.2386  20.2386  21.6544  21.6544
    21.8197  21.8197  23.0942  23.0942  23.4701  23.4701  23.7944  23.7944
    24.3751  24.3751  24.5329  24.5329  24.8967  24.8967  25.0589  25.0589
    25.6958  25.6958  25.8858  25.8858  26.2184  26.2184  26.7837  26.7837
    26.9933  26.9933  27.8554  27.8554  28.1213  28.1213  29.0891  29.0891
    29.4130  29.4130  29.5655  29.5655  29.6309  29.6309  30.9284  30.9284
    31.6104  31.6104  32.4082  32.4082  32.4975  32.4975  32.6835  32.6835
    33.0426  33.0426  33.4517  33.4517  34.0796  34.0796  34.4986  34.4986
    34.5276  34.5276  34.7809  34.7809  34.8174  34.8174  35.3517  35.3517
    35.5283  35.5283  35.9152  35.9152  36.1784  36.1784  36.3278  36.3278
    36.3848  36.3848  36.5128  36.5128  36.8007  36.8007  37.0979  37.0979
    37.9361  37.9361  38.1120  38.1120  38.6524  38.6524  39.0423  39.0423
    39.2790  39.2790  39.6084  39.6084  40.2460  40.2460  40.4499  40.4499
    41.0196  41.0196  41.1766  41.1766  41.3433  41.3433  41.3705  41.3705
    41.6564  41.6564  42.6305  42.6305  42.7084  42.7084  43.0824  43.0824
    43.7090  43.7090  43.9092  43.9092  44.3429  44.3429  44.3504  44.3504
    44.5117  44.5117  44.6237  44.6237  44.9440  44.9440  45.2721  45.2721
    45.4110  45.4110  45.5314  45.5314  45.7973  45.7973  45.8787  45.8787
    46.1639  46.1639  46.2232  46.2232  46.2675  46.2675  46.7993  46.7993
    47.2689  47.2689  47.3164  47.3164  47.6704  47.6704  47.6748  47.6748

          k = 0.1111 0.1925 0.0000 (  8561 PWs)   bands (ev):

   -22.7496 -22.7496 -10.6612 -10.6612  -9.7553  -9.7553  -8.8049  -8.8049
     0.2860   0.2860   1.0635   1.0635   1.9747   1.9747   2.3903   2.3903
     3.9072   3.9072   4.6849   4.6849   4.8262   4.8262   5.1150   5.1150
     6.6197   6.6197   6.6926   6.6926   7.7892   7.7892   9.9447   9.9447
    10.7083  10.7083  11.6145  11.6145  13.8530  13.8530  15.8235  15.8235
    18.0070  18.0070  18.3830  18.3830  20.3404  20.3404  21.4008  21.4008
    21.7964  21.7964  22.2681  22.2681  23.0433  23.0433  23.5348  23.5348
    23.7482  23.7482  23.7620  23.7620  24.0355  24.0355  24.2732  24.2732
    24.8785  24.8785  25.1549  25.1549  25.9313  25.9313  26.1862  26.1862
    26.4274  26.4274  27.1891  27.1891  27.3731  27.3731  28.5670  28.5670
    28.7747  28.7747  28.9959  28.9959  29.8389  29.8389  30.2578  30.2578
    30.8702  30.8702  31.8035  31.8035  31.8482  31.8482  32.8157  32.8157
    33.0860  33.0860  33.3573  33.3573  34.1541  34.1541  34.4735  34.4735
    34.5749  34.5749  34.9873  34.9873  34.9924  34.9924  35.0971  35.0971
    35.4611  35.4611  35.7489  35.7489  35.9567  35.9567  36.0650  36.0650
    36.3079  36.3079  36.6028  36.6028  36.8391  36.8391  37.0626  37.0626
    38.2399  38.2399  38.4103  38.4103  39.0185  39.0185  39.1807  39.1807
    39.3912  39.3912  39.4259  39.4259  39.9344  39.9344  40.1301  40.1301
    40.3104  40.3104  41.2184  41.2184  41.3979  41.3979  41.5081  41.5081
    41.7561  41.7561  42.8009  42.8009  43.2352  43.2352  43.2839  43.2839
    43.8398  43.8398  44.6568  44.6568  44.7355  44.7355  45.2452  45.2452
    45.3385  45.3385  45.3413  45.3413  45.6248  45.6248  45.7333  45.7333
    45.7935  45.7935  45.9000  45.9000  45.9239  45.9239  46.2806  46.2806
    46.4822  46.4822  46.7469  46.7469  46.9670  46.9670  47.0410  47.0410
    47.3452  47.3452  48.2383  48.2383  48.4754  48.4754  48.6975  48.6976

          k = 0.1222 0.2117 0.0000 (  8557 PWs)   bands (ev):

   -22.5671 -22.5671 -10.4456 -10.4456 -10.1680 -10.1680  -9.1193  -9.1193
     0.5368   0.5368   1.3164   1.3164   2.2303   2.2303   2.6435   2.6435
     4.1590   4.1590   4.3630   4.3630   4.9341   4.9341   5.2821   5.2821
     6.8722   6.8722   6.9238   6.9238   8.0294   8.0294  10.1952  10.1952
    11.2042  11.2042  11.8248  11.8248  14.1001  14.1001  15.7235  15.7235
    17.6683  17.6683  18.6145  18.6145  20.2603  20.2603  20.9258  20.9258
    21.4688  21.4688  21.9294  21.9294  22.4863  22.4863  22.7516  22.7516
    22.9918  22.9918  23.1993  23.1993  23.4807  23.4807  24.0678  24.0678
    24.0787  24.0787  24.4777  24.4777  25.1034  25.1034  25.4329  25.4329
    26.4132  26.4132  26.6765  26.6765  26.6930  26.6930  27.7438  27.7438
    27.9960  27.9960  28.9166  28.9166  29.5606  29.5606  30.0850  30.0850
    30.2696  30.2696  31.0073  31.0073  31.1424  31.1424  32.6765  32.6765
    33.2587  33.2587  33.4096  33.4096  33.7172  33.7172  34.4040  34.4040
    34.6338  34.6338  34.8904  34.8904  35.0159  35.0159  35.3183  35.3183
    35.3223  35.3223  35.4807  35.4807  35.5264  35.5264  36.2499  36.2499
    36.7121  36.7121  36.7780  36.7780  37.0435  37.0435  37.2507  37.2507
    38.3760  38.3760  38.4755  38.4755  38.8862  38.8862  38.9375  38.9375
    39.1228  39.1228  39.2420  39.2420  39.7972  39.7972  40.0991  40.0991
    40.7616  40.7616  40.7884  40.7884  41.6574  41.6574  41.7575  41.7575
    41.9195  41.9195  43.0145  43.0145  43.4078  43.4078  43.4552  43.4552
    43.8043  43.8043  44.5696  44.5696  44.8303  44.8303  44.8356  44.8356
    45.3994  45.3994  45.6759  45.6759  46.0052  46.0052  46.0653  46.0653
    46.3868  46.3868  46.7985  46.7985  47.0049  47.0049  47.0526  47.0526
    47.2797  47.2797  47.7701  47.7701  47.8757  47.8757  47.9606  47.9606
    48.3545  48.3545  49.1161  49.1161  49.2557  49.2558  49.7098  49.7103

          k = 0.1333 0.2309 0.0000 (  8553 PWs)   bands (ev):

   -22.3678 -22.3678 -10.5837 -10.5837 -10.2109 -10.2109  -9.4472  -9.4472
     0.8114   0.8114   1.5929   1.5929   2.5102   2.5102   2.9204   2.9204
     3.8846   3.8846   4.4347   4.4347   5.2061   5.2061   5.4692   5.4692
     7.1329   7.1329   7.1481   7.1481   8.2896   8.2896  10.4690  10.4690
    11.7418  11.7418  12.0389  12.0389  14.3696  14.3696  15.4506  15.4506
    17.5597  17.5597  18.8577  18.8577  19.9589  19.9589  20.3934  20.3934
    20.6976  20.6976  21.7200  21.7200  21.9624  21.9624  22.2567  22.2567
    22.3222  22.3222  22.3886  22.3886  22.9217  22.9217  23.3367  23.3367
    23.8449  23.8449  24.2516  24.2516  24.3005  24.3005  24.8129  24.8129
    25.6636  25.6636  26.0394  26.0394  26.9441  26.9441  26.9514  26.9514
    27.2518  27.2518  28.5894  28.5894  28.8883  28.8883  29.9881  29.9881
    30.2177  30.2177  30.3184  30.3184  30.4525  30.4525  32.2399  32.2399
    33.0694  33.0694  33.3967  33.3967  33.4129  33.4129  34.2385  34.2385
    34.4302  34.4302  34.6162  34.6162  34.8887  34.8887  35.5501  35.5501
    35.5797  35.5797  35.6170  35.6170  35.6228  35.6228  36.4825  36.4825
    36.9503  36.9503  36.9735  36.9735  37.2627  37.2627  37.4703  37.4703
    38.0604  38.0604  38.1728  38.1728  38.5854  38.5854  38.8175  38.8175
    38.8646  38.8646  39.3502  39.3502  39.7977  39.7977  40.1955  40.1955
    40.5146  40.5146  41.5834  41.5834  41.9880  41.9880  41.9945  41.9945
    42.0325  42.0325  42.9050  42.9050  43.2298  43.2298  43.4649  43.4649
    43.9990  43.9990  44.1945  44.1945  44.3934  44.3934  44.6593  44.6593
    45.4655  45.4655  45.9046  45.9046  46.3478  46.3478  46.7062  46.7062
    47.0825  47.0825  47.8180  47.8180  47.9794  47.9794  47.9983  47.9983
    48.3575  48.3575  48.6519  48.6519  48.8226  48.8226  49.0590  49.0590
    49.3994  49.3994  49.5564  49.5564  49.8808  49.8808  50.0778  50.0778

          k = 0.1444 0.2502 0.0000 (  8539 PWs)   bands (ev):

   -22.1518 -22.1518 -10.9993 -10.9993  -9.9577  -9.9577  -9.7855  -9.7855
     1.1097   1.1097   1.8929   1.8929   2.8145   2.8145   3.2210   3.2210
     3.3953   3.3953   4.7340   4.7340   5.5005   5.5005   5.6761   5.6761
     7.3238   7.3238   7.4475   7.4475   8.5681   8.5681  10.7659  10.7659
    12.2412  12.2412  12.3088  12.3088  14.6612  14.6612  15.0714  15.0714
    17.6356  17.6356  19.0660  19.0660  19.5288  19.5288  19.8130  19.8130
    19.9567  19.9567  21.0230  21.0230  21.3591  21.3591  21.5368  21.5368
    21.6037  21.6037  22.1761  22.1761  22.5179  22.5179  22.8624  22.8624
    23.2384  23.2384  23.5231  23.5231  23.9870  23.9870  24.7648  24.7648
    24.9257  24.9257  25.4626  25.4626  26.1686  26.1686  26.5584  26.5584
    27.2446  27.2446  28.0092  28.0092  28.2615  28.2615  29.4465  29.4465
    29.6787  29.6787  29.9945  29.9945  30.6722  30.6722  31.6732  31.6732
    32.4082  32.4082  33.1400  33.1400  33.1538  33.1538  33.9853  33.9853
    34.3773  34.3773  34.5268  34.5268  35.1665  35.1665  35.7488  35.7488
    35.7771  35.7771  35.8323  35.8323  35.8688  35.8688  36.6976  36.6976
    36.8807  36.8807  37.1833  37.1833  37.3929  37.3929  37.6043  37.6043
    37.6604  37.6604  38.0215  38.0215  38.1474  38.1474  38.3842  38.3842
    39.1529  39.1529  39.8777  39.8777  39.9521  39.9521  40.1034  40.1034
    40.6162  40.6162  41.8902  41.8902  41.9867  41.9867  42.0583  42.0583
    42.3471  42.3471  42.7557  42.7557  43.2103  43.2103  43.4348  43.4348
    43.4835  43.4835  44.0148  44.0148  44.4267  44.4267  45.0688  45.0688
    45.7072  45.7072  46.1615  46.1615  46.6648  46.6648  47.4248  47.4248
    47.4727  47.4727  48.0516  48.0516  48.4961  48.4961  48.8907  48.8907
    49.0164  49.0164  49.5331  49.5331  49.5564  49.5564  49.6892  49.6892
    49.7862  49.7862  50.2870  50.2870  50.4060  50.4060  50.6266  50.6271

          k = 0.1556 0.2694 0.0000 (  8553 PWs)   bands (ev):

   -21.9192 -21.9192 -11.4122 -11.4122 -10.1314 -10.1314  -9.6864  -9.6864
     1.4316   1.4316   2.2163   2.2163   2.8992   2.8992   3.1430   3.1430
     3.5450   3.5450   5.0568   5.0568   5.8166   5.8166   5.9026   5.9026
     7.5004   7.5004   7.7703   7.7703   8.8619   8.8619  11.0857  11.0857
    12.4002  12.4002  12.8905  12.8905  14.6999  14.6999  14.9742  14.9742
    17.8153  17.8153  18.7897  18.7897  19.1999  19.1999  19.2497  19.2497
    19.4997  19.4997  20.2876  20.2876  20.6882  20.6882  20.8294  20.8294
    20.8455  20.8455  21.5992  21.5992  22.1245  22.1245  22.6396  22.6396
    22.7716  22.7716  22.8983  22.8983  23.5589  23.5589  24.2419  24.2419
    24.9363  24.9363  24.9854  24.9854  25.4176  25.4176  25.9676  25.9676
    27.3426  27.3426  27.5652  27.5652  27.6929  27.6929  28.6966  28.6966
    28.9769  28.9769  30.0705  30.0705  31.0019  31.0019  31.0819  31.0819
    31.8177  31.8177  32.4875  32.4875  32.6224  32.6224  34.1575  34.1575
    34.4173  34.4173  34.5218  34.5218  35.4027  35.4027  35.7775  35.7775
    35.8664  35.8664  36.1254  36.1254  36.1415  36.1415  36.8128  36.8128
    36.8540  36.8540  37.0237  37.0237  37.2904  37.2904  37.4509  37.4509
    37.4803  37.4803  37.9882  37.9882  38.3535  38.3535  38.4206  38.4206
    39.4785  39.4785  39.9903  39.9903  40.1081  40.1081  40.3148  40.3148
    40.8737  40.8737  41.6447  41.6447  41.7899  41.7899  41.8924  41.8924
    42.5860  42.5860  42.7055  42.7055  42.9493  42.9493  43.1554  43.1554
    43.8144  43.8144  44.1437  44.1437  44.6653  44.6653  45.8935  45.8935
    45.9862  45.9862  46.3873  46.3873  47.0287  47.0287  47.6661  47.6661
    47.6927  47.6927  48.0002  48.0002  48.2966  48.2966  48.5316  48.5316
    49.0357  49.0357  49.8707  49.8707  50.3223  50.3223  50.6608  50.6608
    51.0681  51.0681  51.2912  51.2913  51.4133  51.4133  51.5954  51.5954

          k = 0.1667 0.2887 0.0000 (  8555 PWs)   bands (ev):

   -21.6703 -21.6703 -11.8203 -11.8203 -10.4822 -10.4822  -9.3978  -9.3978
     1.7770   1.7770   2.3997   2.3997   2.5626   2.5626   3.4958   3.4958
     3.8920   3.8920   5.4026   5.4026   6.1481   6.1481   6.1535   6.1535
     7.6664   7.6664   8.1164   8.1164   9.1660   9.1660  11.4282  11.4282
    12.4603  12.4603  13.4691  13.4691  14.4453  14.4453  15.3076  15.3076
    18.0403  18.0403  18.1945  18.1945  18.5693  18.5693  18.5829  18.5829
    19.5790  19.5790  19.7243  19.7243  20.0344  20.0344  20.1152  20.1152
    20.1346  20.1346  20.9191  20.9191  21.6336  21.6336  22.0378  22.0378
    22.0470  22.0470  22.9242  22.9242  23.2259  23.2259  23.7525  23.7525
    24.4401  24.4401  24.6914  24.6914  24.9453  24.9453  25.7355  25.7355
    26.6728  26.6728  27.1894  27.1894  27.9053  27.9053  27.9693  27.9693
    28.3011  28.3011  30.0198  30.0198  30.5102  30.5102  31.3501  31.3501
    31.4290  31.4290  31.7866  31.7866  32.0095  32.0095  34.2935  34.2935
    34.3975  34.3975  34.5585  34.5585  35.2376  35.2376  35.9376  35.9376
    35.9684  35.9684  36.2197  36.2197  36.3581  36.3581  36.6403  36.6403
    36.8490  36.8490  36.9269  36.9269  37.0270  37.0270  37.6596  37.6596
    37.6880  37.6880  38.2318  38.2318  38.6130  38.6130  38.6763  38.6763
    39.8271  39.8271  39.9694  39.9694  40.2099  40.2099  40.4296  40.4296
    41.1148  41.1148  41.1288  41.1288  41.6604  41.6604  41.8241  41.8241
    42.1283  42.1283  42.6846  42.6846  42.8981  42.8981  43.7314  43.7314
    44.1585  44.1585  44.4422  44.4422  44.9283  44.9283  46.2856  46.2856
    46.4060  46.4060  46.8357  46.8357  47.5152  47.5152  47.5261  47.5261
    47.7413  47.7413  47.7490  47.7490  47.8858  47.8858  48.4920  48.4920
    48.6618  48.6618  50.8917  50.8917  51.2391  51.2391  51.4294  51.4294
    51.6006  51.6006  52.5039  52.5040  52.5609  52.5610  52.6904  52.6910

          k = 0.1778 0.3079 0.0000 (  8547 PWs)   bands (ev):

   -21.4054 -21.4054 -12.2219 -12.2219 -10.8354 -10.8354  -9.0926  -9.0926
     1.9002   1.9002   2.1458   2.1458   2.9314   2.9314   3.8727   3.8727
     4.2617   4.2617   5.7709   5.7709   6.4123   6.4123   6.5096   6.5096
     7.8245   7.8245   8.4856   8.4856   9.4709   9.4709  11.7929  11.7929
    12.3740  12.3740  14.0191  14.0191  14.3887  14.3887  15.6594  15.6594
    17.5700  17.5700  17.9335  17.9335  17.9689  17.9689  18.2249  18.2249
    18.9567  18.9567  19.2753  19.2753  19.4157  19.4157  19.4541  19.4541
    20.0707  20.0707  20.2578  20.2578  21.0801  21.0801  21.3506  21.3506
    21.4316  21.4316  22.5280  22.5280  22.9188  22.9188  23.7447  23.7447
    23.9516  23.9516  23.9906  23.9906  24.5396  24.5396  25.9427  25.9427
    26.0270  26.0270  26.7488  26.7488  27.2651  27.2651  27.6651  27.6651
    28.2696  28.2696  29.6894  29.6894  29.9815  29.9815  31.0927  31.0927
    31.2896  31.2896  31.3713  31.3713  31.8162  31.8162  33.8871  33.8871
    34.6003  34.6003  34.6957  34.6957  34.7536  34.7536  35.7412  35.7412
    36.0813  36.0813  36.1731  36.1731  36.2717  36.2717  36.9008  36.9008
    36.9069  36.9069  37.1433  37.1433  37.2892  37.2892  37.9622  37.9622
    37.9839  37.9839  38.5061  38.5061  38.8141  38.8141  38.9377  38.9377
    40.0474  40.0474  40.1749  40.1749  40.1866  40.1866  40.3488  40.3488
    40.6009  40.6009  41.0465  41.0465  41.3839  41.3839  41.8954  41.8954
    42.1540  42.1540  42.6524  42.6524  43.2430  43.2430  44.3608  44.3608
    44.4282  44.4282  44.7802  44.7802  45.2246  45.2246  46.1729  46.1729
    46.5843  46.5843  47.0788  47.0788  47.2761  47.2761  47.3662  47.3662
    47.6030  47.6030  47.7871  47.7871  48.5030  48.5030  48.7822  48.7822
    48.8481  48.8481  51.5143  51.5143  51.6656  51.6656  51.9881  51.9881
    52.6775  52.6775  52.8902  52.8902  53.2557  53.2559  53.2727  53.2728

          k = 0.1889 0.3272 0.0000 (  8551 PWs)   bands (ev):

   -21.1248 -21.1248 -12.6156 -12.6156 -11.1887 -11.1887  -8.7717  -8.7717
     1.4034   1.4034   2.5377   2.5377   3.3221   3.3221   4.2739   4.2739
     4.6534   4.6534   6.1603   6.1603   6.6950   6.6950   6.8824   6.8824
     7.9768   7.9768   8.8778   8.8778   9.7575   9.7575  12.1794  12.1794
    12.1812  12.1812  14.4961  14.4961  14.5222  14.5222  16.0235  16.0235
    16.9532  16.9532  17.3012  17.3012  17.4346  17.4346  17.9944  17.9944
    18.6110  18.6110  18.7349  18.7349  18.7536  18.7536  18.7899  18.7899
    19.6808  19.6808  20.1870  20.1870  20.6413  20.6413  20.6851  20.6851
    20.8249  20.8249  21.9398  21.9398  22.5720  22.5720  23.3157  23.3157
    23.4555  23.4555  23.9429  23.9429  24.1106  24.1106  25.4455  25.4455
    26.1898  26.1898  26.3564  26.3564  26.5843  26.5843  27.1287  27.1287
    28.6541  28.6541  29.1796  29.1796  29.5118  29.5118  30.4158  30.4158
    30.6679  30.6679  31.5284  31.5284  32.2152  32.2152  33.4105  33.4105
    34.2192  34.2192  34.5357  34.5357  34.6804  34.6804  35.4740  35.4740
    35.7397  35.7397  36.4284  36.4284  36.6445  36.6445  37.2424  37.2424
    37.2631  37.2631  37.3993  37.3993  37.5507  37.5507  38.2983  38.2983
    38.3251  38.3251  38.7502  38.7502  38.7969  38.7969  39.2607  39.2607
    39.9991  39.9991  40.0190  40.0190  40.2123  40.2123  40.4048  40.4048
    40.5864  40.5864  40.6498  40.6498  41.2391  41.2391  42.1402  42.1402
    42.5239  42.5239  42.7718  42.7718  43.5970  43.5970  44.5890  44.5890
    44.8244  44.8244  45.1169  45.1169  45.5521  45.5521  46.0795  46.0795
    46.6383  46.6383  46.6580  46.6580  46.7269  46.7269  47.1273  47.1273
    48.0242  48.0242  48.2726  48.2726  49.1077  49.1077  49.2262  49.2262
    49.6793  49.6793  51.5640  51.5640  51.7923  51.7923  52.8408  52.8409
    52.9059  52.9059  53.0455  53.0456  53.1558  53.1558  53.5892  53.5893

          k = 0.2000 0.3464 0.0000 (  8553 PWs)   bands (ev):

   -20.8288 -20.8288 -13.0001 -13.0001 -11.5400 -11.5400  -8.4362  -8.4362
     0.9117   0.9117   2.9526   2.9526   3.7336   3.7336   4.6991   4.6991
     5.0662   5.0662   6.5681   6.5681   6.9972   6.9972   7.2674   7.2674
     8.1245   8.1245   9.2927   9.2927   9.9885   9.9885  11.9970  11.9970
    12.5866  12.5866  14.7761  14.7761  14.8145  14.8145  16.2456  16.2456
    16.5057  16.5057  16.6785  16.6785  17.0318  17.0318  17.4139  17.4139
    17.9610  17.9610  18.1437  18.1437  18.1488  18.1488  18.5922  18.5922
    19.4364  19.4364  19.7478  19.7478  20.0559  20.0559  20.2229  20.2229
    20.7180  20.7180  21.3499  21.3499  22.1881  22.1881  22.6678  22.6678
    22.9471  22.9471  23.7359  23.7359  24.0347  24.0347  25.0592  25.0592
    25.9272  25.9272  25.9886  25.9886  26.0859  26.0859  26.9996  26.9996
    28.6070  28.6070  29.0740  29.0740  29.1118  29.1118  29.7590  29.7590
    30.0378  30.0378  31.7348  31.7348  32.6574  32.6574  32.9270  32.9270
    33.7307  33.7307  34.0762  34.0762  34.3366  34.3366  35.6184  35.6184
    35.7543  35.7543  36.6460  36.6460  37.0241  37.0241  37.6281  37.6281
    37.6326  37.6326  37.6424  37.6424  37.7353  37.7353  38.6225  38.6225
    38.7053  38.7053  38.7916  38.7916  38.8524  38.8524  39.4202  39.4202
    39.6708  39.6708  39.8126  39.8126  40.2128  40.2128  40.4915  40.4915
    40.6326  40.6326  41.0609  41.0609  41.2413  41.2413  42.5087  42.5087
    42.8186  42.8186  42.9954  42.9954  43.9067  43.9067  44.6184  44.6184
    44.8767  44.8767  45.3481  45.3481  45.8462  45.8462  46.1262  46.1262
    46.3027  46.3027  46.4542  46.4542  46.5516  46.5516  47.4198  47.4198
    48.4615  48.4615  48.9010  48.9010  49.4885  49.4885  49.6230  49.6230
    50.6055  50.6055  51.3672  51.3672  51.9563  51.9563  52.7488  52.7488
    52.7890  52.7890  52.9929  52.9929  53.3285  53.3285  53.7501  53.7502

          k = 0.2111 0.3657 0.0000 (  8569 PWs)   bands (ev):

   -20.5180 -20.5180 -13.3745 -13.3745 -11.8873 -11.8873  -8.0874  -8.0874
     0.4273   0.4273   3.3902   3.3902   4.1644   4.1644   5.1483   5.1483
     5.4985   5.4985   6.9873   6.9873   7.3234   7.3234   7.6560   7.6560
     8.2682   8.2682   9.7298   9.7298  10.1104  10.1104  11.9407  11.9407
    13.0132  13.0132  14.8581  14.8581  15.0885  15.0885  15.7205  15.7205
    16.0696  16.0696  16.7799  16.7799  16.8150  16.8150  16.8262  16.8262
    17.3402  17.3402  17.5171  17.5171  17.6759  17.6759  18.1148  18.1148
    19.1721  19.1721  19.4763  19.4763  19.5730  19.5730  19.6304  19.6304
    20.8105  20.8105  20.8316  20.8316  21.8400  21.8400  22.0486  22.0486
    22.4293  22.4293  23.4358  23.4358  23.7639  23.7639  25.0875  25.0875
    25.2937  25.2937  25.6007  25.6007  25.6215  25.6215  27.2927  27.2927
    28.0550  28.0550  28.7837  28.7837  29.1237  29.1237  29.4261  29.4261
    29.5009  29.5009  31.8500  31.8500  32.4695  32.4695  33.1013  33.1013
    33.3972  33.3972  33.5030  33.5030  33.8356  33.8356  35.8907  35.8907
    36.0006  36.0006  36.6859  36.6859  37.3175  37.3175  37.7958  37.7958
    37.8855  37.8855  37.9886  37.9886  38.0602  38.0602  38.7120  38.7120
    38.8810  38.8810  38.9407  38.9407  38.9810  38.9810  39.2974  39.2974
    39.6209  39.6209  39.8644  39.8644  40.3738  40.3738  40.8097  40.8097
    40.9409  40.9409  41.3413  41.3413  41.5078  41.5078  42.9097  42.9097
    42.9628  42.9628  43.2944  43.2944  43.9570  43.9570  44.7196  44.7196
    44.8450  44.8450  45.1884  45.1884  45.4399  45.4399  46.3388  46.3388
    46.3581  46.3581  46.5905  46.5905  47.0174  47.0174  47.8033  47.8033
    48.9126  48.9126  49.6279  49.6279  49.8873  49.8873  50.0406  50.0406
    50.6116  50.6116  51.0896  51.0896  52.1871  52.1871  52.3003  52.3003
    52.7542  52.7542  53.1055  53.1055  53.7082  53.7082  54.2144  54.2146

          k = 0.2222 0.3849 0.0000 (  8583 PWs)   bands (ev):

   -20.1929 -20.1929 -13.7380 -13.7380 -12.2286 -12.2286  -7.7267  -7.7267
    -0.0480  -0.0480   3.8500   3.8500   4.6119   4.6119   5.6213   5.6213
     5.9475   5.9475   7.4012   7.4012   7.6874   7.6874   8.0307   8.0307
     8.4077   8.4077  10.1113  10.1113  10.1884  10.1884  12.0742  12.0742
    13.4561  13.4561  14.6261  14.6261  15.1591  15.1591  15.3889  15.3889
    15.4772  15.4772  16.2748  16.2748  16.4672  16.4672  16.7010  16.7010
    16.9110  16.9110  17.2456  17.2456  17.4986  17.4986  17.5769  17.5769
    18.6031  18.6031  18.9856  18.9856  19.0510  19.0510  19.6069  19.6069
    20.5642  20.5642  20.6548  20.6548  21.4615  21.4615  21.6156  21.6156
    21.9083  21.9083  23.2627  23.2627  23.2949  23.2949  24.6841  24.6841
    25.0584  25.0584  25.2392  25.2392  25.3469  25.3469  27.5405  27.5405
    27.6699  27.6699  28.5103  28.5103  28.5170  28.5170  28.8550  28.8550
    29.9497  29.9497  31.7216  31.7216  32.0594  32.0594  32.9184  32.9184
    33.1404  33.1404  33.3607  33.3607  33.7203  33.7203  36.1675  36.1675
    36.3392  36.3392  36.4819  36.4819  37.2518  37.2518  38.0402  38.0402
    38.0992  38.0992  38.1579  38.1579  38.4445  38.4445  38.5945  38.5945
    38.7280  38.7280  39.1308  39.1308  39.3197  39.3197  39.7007  39.7007
    39.8891  39.8891  40.0749  40.0749  40.7472  40.7472  41.1966  41.1966
    41.2526  41.2526  41.5263  41.5263  41.9802  41.9802  42.9483  42.9483
    43.3000  43.3000  43.6373  43.6373  43.6737  43.6737  44.7904  44.7904
    44.9247  44.9247  44.9827  44.9827  45.0471  45.0471  46.6901  46.6901
    46.7422  46.7422  46.7804  46.7804  47.5305  47.5305  48.2171  48.2171
    49.3730  49.3730  50.1628  50.1628  50.2159  50.2159  50.2654  50.2654
    50.4788  50.4788  51.0677  51.0677  51.6045  51.6045  51.8263  51.8263
    52.4509  52.4509  54.0119  54.0119  54.1605  54.1605  54.2138  54.2139

          k = 0.2333 0.4041 0.0000 (  8557 PWs)   bands (ev):

   -19.8543 -19.8543 -14.0898 -14.0898 -12.5622 -12.5622  -7.3558  -7.3558
    -0.5125  -0.5125   4.3315   4.3315   5.0712   5.0712   6.1179   6.1179
     6.4081   6.4081   7.7853   7.7853   8.1093   8.1093   8.3566   8.3566
     8.5422   8.5422  10.0827  10.0827  10.6674  10.6674  12.3631  12.3631
    13.9052  13.9052  14.2490  14.2490  14.6284  14.6284  14.9034  14.9034
    15.3874  15.3874  15.9958  15.9958  16.0398  16.0398  16.1274  16.1274
    16.3264  16.3264  17.0925  17.0925  17.4566  17.4566  17.5685  17.5685
    18.0963  18.0963  18.4874  18.4874  18.6979  18.6979  19.2858  19.2858
    20.2952  20.2952  20.7053  20.7053  20.9144  20.9144  21.3901  21.3901
    21.4133  21.4133  22.8143  22.8143  23.2699  23.2699  24.0986  24.0986
    24.5466  24.5466  24.8372  24.8372  25.6118  25.6118  27.1231  27.1231
    27.9040  27.9040  27.9193  27.9193  28.2893  28.2893  28.4898  28.4898
    30.4102  30.4102  31.3851  31.3851  31.7140  31.7140  32.3444  32.3444
    32.6195  32.6195  33.5834  33.5834  34.1838  34.1838  36.1460  36.1460
    36.3691  36.3691  36.7041  36.7041  36.9288  36.9288  37.7969  37.7969
    38.0180  38.0180  38.5331  38.5331  38.5379  38.5379  39.0352  39.0352
    39.0879  39.0879  39.4469  39.4469  39.7218  39.7218  40.2166  40.2166
    40.2946  40.2946  40.3311  40.3311  41.1698  41.1698  41.4808  41.4808
    41.6323  41.6323  41.7934  41.7934  42.4751  42.4751  42.9205  42.9205
    43.2947  43.2947  43.5467  43.5467  43.9176  43.9176  44.5241  44.5241
    44.5577  44.5577  45.2753  45.2753  45.4264  45.4264  46.8808  46.8808
    47.1291  47.1291  47.2380  47.2380  47.9111  47.9111  48.6500  48.6500
    49.5660  49.5660  49.9028  49.9028  50.2703  50.2703  50.4879  50.4879
    50.9020  50.9020  51.0717  51.0717  51.5471  51.5471  51.6042  51.6042
    51.7283  51.7283  54.3818  54.3818  54.8295  54.8296  55.0318  55.0319

          k = 0.2444 0.4234 0.0000 (  8551 PWs)   bands (ev):

   -19.5031 -19.5031 -14.4295 -14.4295 -12.8862 -12.8862  -6.9769  -6.9769
    -0.9648  -0.9648   4.8338   4.8338   5.5331   5.5331   6.6377   6.6377
     6.8703   6.8703   8.1364   8.1364   8.5858   8.5858   8.5870   8.5870
     8.6699   8.6699  10.1593  10.1593  11.1647  11.1647  12.7412  12.7412
    13.8242  13.8242  14.0564  14.0564  14.3495  14.3495  14.4313  14.4313
    14.9536  14.9536  15.4798  15.4798  15.5743  15.5743  15.7638  15.7638
    16.0490  16.0490  16.8593  16.8593  17.2103  17.2103  17.4003  17.4003
    17.9419  17.9419  18.0586  18.0586  18.7150  18.7150  18.8410  18.8410
    19.8920  19.8920  20.4282  20.4282  20.8799  20.8799  20.9688  20.9688
    21.1378  21.1378  22.4119  22.4119  23.3393  23.3393  23.5371  23.5371
    24.1867  24.1867  24.4191  24.4191  25.6940  25.6940  26.9489  26.9489
    27.3508  27.3508  27.5513  27.5513  28.0724  28.0724  28.7643  28.7643
    30.7678  30.7678  31.0920  31.0920  31.4459  31.4459  31.7879  31.7879
    32.0770  32.0770  33.9137  33.9137  34.6992  34.6992  35.7747  35.7747
    36.3658  36.3658  36.5540  36.5540  36.9205  36.9205  37.6881  37.6881
    37.7389  37.7389  38.9648  38.9648  38.9984  38.9984  39.5204  39.5204
    39.5590  39.5590  39.7951  39.7951  40.1324  40.1324  40.6131  40.6131
    40.7495  40.7495  40.7651  40.7651  41.5510  41.5510  41.6151  41.6151
    42.0804  42.0804  42.1217  42.1217  42.9079  42.9079  43.0198  43.0198
    43.0642  43.0642  43.4198  43.4198  43.7736  43.7736  44.6973  44.6973
    44.7197  44.7197  45.6431  45.6431  45.6993  45.6993  46.9175  46.9175
    47.6006  47.6006  47.7234  47.7234  48.1063  48.1063  49.0820  49.0820
    49.1540  49.1540  50.2570  50.2570  50.3041  50.3041  50.3441  50.3441
    50.4699  50.4699  50.9599  50.9599  51.4367  51.4367  51.7067  51.7067
    52.5648  52.5648  54.6901  54.6901  54.8008  54.8008  55.5690  55.5697

          k = 0.2556 0.4426 0.0000 (  8547 PWs)   bands (ev):

   -19.1406 -19.1406 -14.7566 -14.7566 -13.1986 -13.1986  -6.5922  -6.5922
    -1.4037  -1.4037   5.3558   5.3558   5.9781   5.9781   7.1802   7.1802
     7.3145   7.3145   8.4643   8.4643   8.7273   8.7273   8.7880   8.7880
     9.1025   9.1025  10.4128  10.4128  11.6764  11.6764  13.1523  13.1523
    13.3962  13.3962  13.6079  13.6079  13.8165  13.8165  14.4751  14.4751
    14.8280  14.8280  14.9671  14.9671  15.0847  15.0847  15.2237  15.2237
    15.7376  15.7376  16.8046  16.8046  16.9200  16.9200  17.0410  17.0410
    17.4157  17.4157  18.2226  18.2226  18.4290  18.4290  18.8305  18.8305
    19.5498  19.5498  20.0685  20.0685  20.3816  20.3816  20.8674  20.8674
    21.0775  21.0775  22.2451  22.2451  23.0002  23.0002  23.1237  23.1237
    23.9922  23.9922  24.2607  24.2607  25.4825  25.4825  26.8052  26.8052
    27.0493  27.0493  27.1152  27.1152  27.8419  27.8419  29.2387  29.2387
    30.4708  30.4708  31.2520  31.2520  31.2591  31.2591  31.4652  31.4652
    31.5521  31.5521  34.2453  34.2453  35.2304  35.2304  35.4140  35.4140
    36.1134  36.1134  36.2304  36.2304  36.6734  36.6734  37.8198  37.8198
    37.9801  37.9801  39.3862  39.3862  39.4403  39.4403  39.9639  39.9639
    40.1091  40.1091  40.1361  40.1361  40.4817  40.4817  40.9275  40.9275
    41.2197  41.2197  41.3237  41.3237  41.5739  41.5739  42.0722  42.0722
    42.3935  42.3935  42.4440  42.4440  42.6772  42.6772  43.2549  43.2549
    43.3992  43.3992  43.5110  43.5110  43.5285  43.5285  45.1313  45.1313
    45.1699  45.1699  45.5274  45.5274  46.0207  46.0207  47.0377  47.0377
    48.0786  48.0786  48.1350  48.1350  48.2307  48.2307  48.9186  48.9186
    49.3996  49.3996  49.9498  49.9498  50.1046  50.1046  50.1422  50.1422
    50.5251  50.5251  51.1108  51.1108  51.9381  51.9381  52.1263  52.1263
    53.3095  53.3095  53.6930  53.6930  54.6540  54.6541  55.1519  55.1519

          k = 0.2667 0.4619 0.0000 (  8539 PWs)   bands (ev):

   -18.7687 -18.7687 -15.0706 -15.0706 -13.4971 -13.4971  -6.2046  -6.2046
    -1.8282  -1.8282   5.8955   5.8955   6.3662   6.3662   7.7152   7.7152
     7.7441   7.7441   8.7697   8.7697   8.8923   8.8923   8.9015   8.9015
     9.6443   9.6443  10.8081  10.8081  12.1911  12.1911  12.9855  12.9855
    13.1807  13.1807  13.3052  13.3052  13.4753  13.4753  14.1103  14.1103
    14.4723  14.4723  14.5183  14.5183  14.7065  14.7065  15.3194  15.3194
    15.3323  15.3323  16.3564  16.3564  16.4575  16.4575  16.9100  16.9100
    17.2220  17.2220  18.1734  18.1734  18.2074  18.2074  18.7557  18.7557
    19.3038  19.3038  19.8983  19.8983  19.9690  19.9690  20.7545  20.7545
    20.8842  20.8842  22.4302  22.4302  22.4883  22.4883  22.7056  22.7056
    23.5637  23.5637  24.6387  24.6387  25.1432  25.1432  26.2825  26.2825
    26.5556  26.5556  27.4469  27.4469  27.5843  27.5843  29.7516  29.7516
    30.0878  30.0878  30.7384  30.7384  31.0585  31.0585  31.1444  31.1444
    31.9709  31.9709  34.4612  34.4612  35.0903  35.0903  35.7377  35.7377
    35.7428  35.7428  36.0752  36.0752  36.2762  36.2762  38.0783  38.0783
    38.4533  38.4533  39.6992  39.6992  39.7345  39.7345  40.3927  40.3927
    40.4913  40.4913  40.6790  40.6790  40.7230  40.7230  41.2677  41.2677
    41.6756  41.6756  41.7871  41.7871  41.8582  41.8582  42.2049  42.2049
    42.5923  42.5923  42.6192  42.6192  42.6357  42.6357  43.5340  43.5340
    43.5406  43.5406  43.8395  43.8395  44.0145  44.0145  44.8917  44.8917
    45.6384  45.6384  45.6889  45.6889  46.3374  46.3374  47.4214  47.4214
    48.1303  48.1303  48.4903  48.4903  48.6858  48.6858  48.7325  48.7325
    49.3486  49.3486  49.4850  49.4850  49.9847  49.9847  50.3856  50.3856
    50.8912  50.8912  51.6244  51.6244  52.2643  52.2643  52.4590  52.4590
    52.6350  52.6350  53.4382  53.4382  53.8625  53.8625  54.1024  54.1024

          k = 0.2778 0.4811 0.0000 (  8537 PWs)   bands (ev):

   -18.3897 -18.3897 -15.3712 -15.3712 -13.7788 -13.7788  -5.8172  -5.8172
    -2.2371  -2.2371   6.4498   6.4498   6.6335   6.6335   8.0909   8.0909
     8.3260   8.3260   8.9769   8.9769   9.0456   9.0456   9.2222   9.2222
    10.2044  10.2044  11.2819  11.2819  12.5981  12.5981  12.6043  12.6043
    12.8161  12.8161  12.9019  12.9019  13.3252  13.3252  14.0020  14.0020
    14.0591  14.0591  14.1693  14.1693  14.2125  14.2125  15.0222  15.0222
    15.5698  15.5698  15.9088  15.9088  16.1311  16.1311  16.4256  16.4256
    17.0797  17.0797  17.9712  17.9712  18.3759  18.3759  18.4539  18.4539
    19.0532  19.0532  19.4320  19.4320  20.1040  20.1040  20.5647  20.5647
    20.9027  20.9027  22.0030  22.0030  22.2733  22.2733  22.7713  22.7713
    23.1399  23.1399  24.8168  24.8168  25.1030  25.1030  25.7833  25.7833
    26.1040  26.1040  27.2983  27.2983  27.7896  27.7896  29.7772  29.7772
    30.2070  30.2070  30.2480  30.2480  30.6771  30.6771  31.0794  31.0794
    32.4857  32.4857  34.4488  34.4488  34.8233  34.8233  35.3266  35.3266
    35.7031  35.7031  36.2062  36.2062  36.4302  36.4302  38.3792  38.3792
    38.9778  38.9778  39.7206  39.7206  39.7482  39.7482  40.7555  40.7555
    40.9468  40.9468  41.0435  41.0435  41.2560  41.2560  41.5930  41.5930
    41.8336  41.8336  42.0788  42.0788  42.2129  42.2129  42.3862  42.3862
    42.6266  42.6266  42.8541  42.8541  43.1463  43.1463  43.7753  43.7753
    43.9226  43.9226  44.0480  44.0480  44.3231  44.3231  44.8473  44.8473
    46.1677  46.1677  46.2439  46.2439  46.5125  46.5125  47.9113  47.9113
    48.2561  48.2561  48.3318  48.3318  48.5322  48.5322  48.8406  48.8406
    49.4588  49.4588  49.4690  49.4690  50.1645  50.1645  50.8135  50.8135
    50.9266  50.9266  51.3272  51.3272  51.8930  51.8930  52.2304  52.2304
    52.5480  52.5480  52.9927  52.9927  53.1470  53.1470  53.1900  53.1900

          k = 0.2889 0.5004 0.0000 (  8537 PWs)   bands (ev):

   -18.0078 -18.0078 -15.6581 -15.6581 -14.0397 -14.0397  -5.4337  -5.4337
    -2.6299  -2.6299   6.7460   6.7460   7.0133   7.0133   8.5205   8.5205
     8.9110   8.9110   9.0346   9.0346   9.2894   9.2894   9.6834   9.6834
    10.7714  10.7714  11.7803  11.7803  12.2605  12.2605  12.3496  12.3496
    12.3948  12.3948  12.9562  12.9562  13.2264  13.2264  13.5608  13.5608
    13.6767  13.6767  13.7419  13.7419  14.1360  14.1360  15.0940  15.0940
    15.3741  15.3741  15.4772  15.4772  15.9631  15.9631  16.1469  16.1469
    16.7795  16.7795  17.8185  17.8185  18.0699  18.0699  18.7237  18.7237
    18.7842  18.7842  18.9844  18.9844  20.2783  20.2783  20.2997  20.2997
    21.1966  21.1966  21.5486  21.5486  21.9270  21.9270  22.7255  22.7255
    23.0766  23.0766  24.6071  24.6071  25.3079  25.3079  25.3952  25.3952
    25.9059  25.9059  26.9905  26.9905  28.0240  28.0240  29.6293  29.6293
    29.7818  29.7818  30.0230  30.0230  30.9868  30.9868  31.0334  31.0334
    32.9743  32.9743  34.2832  34.2832  34.6308  34.6308  34.9127  34.9127
    35.2818  35.2818  36.5665  36.5665  36.9934  36.9934  38.6873  38.6873
    39.4424  39.4424  39.4996  39.4996  39.5842  39.5842  40.9254  40.9254
    41.4292  41.4292  41.4564  41.4564  41.5251  41.5251  41.8783  41.8783
    41.9194  41.9194  42.2413  42.2413  42.7402  42.7402  42.8037  42.8037
    42.8728  42.8728  43.0514  43.0514  43.4453  43.4453  43.7332  43.7332
    44.4514  44.4515  44.6043  44.6043  44.8013  44.8013  45.4068  45.4068
    46.5505  46.5505  46.6821  46.6821  46.8169  46.8169  47.8623  47.8623
    48.2426  48.2426  48.4641  48.4641  48.5074  48.5074  48.5779  48.5779
    49.3748  49.3748  50.0053  50.0053  50.0125  50.0125  50.2196  50.2196
    50.6501  50.6501  51.0162  51.0162  51.4697  51.4697  51.7187  51.7187
    51.7752  51.7752  52.8263  52.8264  52.8547  52.8547  53.5462  53.5463

          k = 0.3000 0.5196 0.0000 (  8515 PWs)   bands (ev):

   -17.6292 -17.6292 -15.9312 -15.9312 -14.2736 -14.2736  -5.0581  -5.0581
    -3.0056  -3.0056   6.7488   6.7488   7.5755   7.5755   9.0331   9.0331
     9.0565   9.0565   9.3360   9.3360   9.6421   9.6421  10.2262  10.2262
    11.3123  11.3123  11.9061  11.9061  11.9595  11.9595  12.1493  12.1493
    12.1530  12.1530  12.7147  12.7147  13.1533  13.1533  13.1543  13.1543
    13.2949  13.2949  13.7849  13.7849  13.8656  13.8656  15.0639  15.0639
    15.0686  15.0686  15.4249  15.4249  15.5230  15.5230  16.1482  16.1482
    16.5373  16.5373  17.6736  17.6736  17.7748  17.7748  18.5567  18.5567
    18.6555  18.6555  18.9717  18.9717  20.1787  20.1787  20.4561  20.4561
    21.1435  21.1435  21.1976  21.1976  22.0206  22.0206  22.3240  22.3240
    23.1838  23.1838  24.6500  24.6500  24.8573  24.8573  25.0995  25.0995
    26.3627  26.3627  26.6702  26.6702  28.0493  28.0493  29.3404  29.3404
    29.6146  29.6146  29.7312  29.7312  30.9764  30.9764  31.5712  31.5712
    33.3316  33.3316  34.1795  34.1795  34.5089  34.5089  34.5254  34.5254
    34.8597  34.8597  37.0163  37.0163  37.5906  37.5906  38.9756  38.9756
    39.0180  39.0180  39.3494  39.3494  39.9409  39.9409  40.8741  40.8741
    41.1459  41.1459  41.4564  41.4564  42.0886  42.0886  42.2503  42.2503
    42.3643  42.3643  42.4007  42.4007  43.1586  43.1586  43.3100  43.3100
    43.3174  43.3174  43.3387  43.3387  43.9218  43.9218  44.3639  44.3639
    45.0422  45.0422  45.1458  45.1458  45.1975  45.1975  46.0331  46.0331
    46.6019  46.6019  47.0397  47.0397  47.3371  47.3371  47.4390  47.4390
    47.9978  47.9978  48.1567  48.1567  48.1623  48.1623  48.7568  48.7568
    49.0391  49.0391  49.1547  49.1547  49.5016  49.5016  50.0922  50.0922
    50.5475  50.5475  50.6109  50.6109  51.0530  51.0530  51.3800  51.3800
    52.0933  52.0933  52.1769  52.1769  52.5556  52.5556  53.3986  53.3986

          k = 0.3111 0.5389 0.0000 (  8522 PWs)   bands (ev):

   -17.2647 -17.2647 -16.1902 -16.1902 -14.4701 -14.4701  -4.6950  -4.6950
    -3.3637  -3.3637   6.7083   6.7083   8.1144   8.1144   9.0350   9.0350
     9.4512   9.4512   9.6043   9.6043  10.2312  10.2312  10.8021  10.8021
    11.4858  11.4858  11.6583  11.6583  11.7006  11.7006  12.0177  12.0177
    12.0878  12.0878  12.7900  12.7900  12.8716  12.8716  12.8890  12.8890
    12.9167  12.9167  13.6776  13.6776  13.9636  13.9636  14.6877  14.6877
    14.9145  14.9145  15.1056  15.1056  15.5636  15.5636  16.1089  16.1089
    16.5932  16.5932  17.2873  17.2873  17.6460  17.6460  18.1496  18.1496
    18.8697  18.8697  18.9467  18.9467  20.4070  20.4070  20.4421  20.4421
    20.8901  20.8901  20.8928  20.8928  21.9381  21.9381  22.5222  22.5222
    23.0777  23.0777  24.4324  24.4324  24.7215  24.7215  24.9502  24.9502
    26.3458  26.3458  26.9634  26.9634  27.9179  27.9179  28.9244  28.9244
    29.2163  29.2163  30.0188  30.0188  30.8871  30.8871  32.1953  32.1953
    33.3707  33.3707  34.1209  34.1209  34.3647  34.3647  34.4582  34.4582
    34.5098  34.5098  37.4105  37.4105  38.1970  38.1970  38.5960  38.5960
    39.1120  39.1120  39.1961  39.1961  40.1023  40.1023  40.7853  40.7853
    40.8179  40.8179  41.0891  41.0891  42.6872  42.6872  42.7372  42.7372
    42.8222  42.8222  42.9131  42.9131  43.5685  43.5685  43.7808  43.7808
    43.8861  43.8861  43.9166  43.9166  44.5036  44.5036  45.0252  45.0252
    45.4172  45.4172  45.5680  45.5680  45.6618  45.6618  46.6793  46.6793
    46.6841  46.6841  46.8531  46.8531  46.9003  46.9003  47.3188  47.3188
    47.4233  47.4233  47.5248  47.5248  48.0150  48.0150  48.2989  48.2989
    48.3503  48.3503  48.5983  48.5983  49.5714  49.5714  49.7435  49.7435
    49.9277  49.9277  50.8100  50.8100  51.1697  51.1697  51.2427  51.2427
    51.7541  51.7541  52.3302  52.3302  52.4634  52.4634  52.8422  52.8422

          k = 0.3222 0.5581 0.0000 (  8546 PWs)   bands (ev):

   -16.9332 -16.9332 -16.4350 -16.4350 -14.6110 -14.6110  -4.3490  -4.3490
    -3.7036  -3.7036   6.6678   6.6678   8.5781   8.5781   8.9660   8.9660
     9.4664   9.4664  10.1987  10.1987  10.8263  10.8263  11.0889  11.0889
    11.3001  11.3001  11.4734  11.4734  11.6290  11.6290  11.8174  11.8174
    12.1820  12.1820  12.4721  12.4721  12.4801  12.4801  12.8912  12.8912
    12.9225  12.9225  13.9124  13.9124  13.9164  13.9164  14.3391  14.3391
    14.7112  14.7112  14.9292  14.9292  15.4281  15.4281  16.2455  16.2455
    16.9196  16.9196  16.9791  16.9791  17.4453  17.4453  17.7639  17.7639
    18.7825  18.7825  19.3306  19.3306  20.1615  20.1615  20.5805  20.5805
    20.8195  20.8195  20.8737  20.8737  21.5696  21.5696  22.9115  22.9115
    23.1170  23.1170  24.0348  24.0348  24.3693  24.3693  25.3488  25.3488
    26.0245  26.0245  27.5979  27.5979  27.7622  27.7622  28.5341  28.5341
    28.8494  28.8494  30.3457  30.3457  30.7582  30.7582  32.8362  32.8362
    33.2582  33.2582  33.7518  33.7518  34.0883  34.0883  34.5722  34.5722
    34.6408  34.6408  37.4490  37.4490  38.5388  38.5388  38.7814  38.7814
    38.9040  38.9040  39.2736  39.2736  39.9419  39.9419  40.2939  40.2939
    40.8244  40.8244  41.1968  41.1968  42.8377  42.8377  43.2850  43.2850
    43.4496  43.4496  43.5253  43.5253  44.1144  44.1144  44.2175  44.2175
    44.4093  44.4093  44.5527  44.5527  45.1006  45.1006  45.2140  45.2140
    45.5467  45.5467  45.7169  45.7169  45.7774  45.7774  46.2230  46.2230
    46.2472  46.2472  46.7879  46.7879  46.8021  46.8021  47.0988  47.0988
    47.2010  47.2010  47.2234  47.2234  47.3258  47.3258  47.5356  47.5356
    48.4547  48.4547  48.8828  48.8828  48.9607  48.9607  49.3591  49.3591
    50.1287  50.1287  50.4951  50.4951  50.9719  50.9719  51.7863  51.7863
    51.8094  51.8094  51.8856  51.8856  52.6048  52.6050  52.8812  52.8812

          k = 0.3333 0.5774 0.0000 (  8526 PWs)   bands (ev):

   -16.6664 -16.6664 -16.6643 -16.6643 -14.6662 -14.6662  -4.0248  -4.0248
    -4.0248  -4.0248   6.6511   6.6511   8.8505   8.8505   8.8543   8.8543
     9.4608   9.4608  10.7156  10.7156  10.7156  10.7156  11.2563  11.2563
    11.2584  11.2584  11.3449  11.3449  11.5589  11.5589  12.0965  12.0965
    12.0965  12.0965  12.2366  12.2366  12.2387  12.2387  12.8045  12.8045
    13.0037  13.0037  14.0279  14.0279  14.0287  14.0287  14.3401  14.3401
    14.3401  14.3401  14.9263  14.9263  15.3125  15.3125  16.5745  16.5745
    16.5748  16.5748  17.3280  17.3280  17.4002  17.4002  17.4002  17.4002
    18.6823  18.6823  19.8144  19.8144  19.8144  19.8144  20.3900  20.3900
    20.8899  20.8899  21.2199  21.2199  21.2199  21.2199  22.8249  22.8249
    23.6664  23.6664  23.6665  23.6665  24.1388  24.1388  25.7115  25.7115
    25.7115  25.7115  27.6892  27.6892  28.1699  28.1699  28.1699  28.1699
    28.6015  28.6015  30.5942  30.5942  30.5942  30.5942  33.2028  33.2028
    33.4031  33.4031  33.4031  33.4031  33.8379  33.8379  34.6874  34.6874
    34.6874  34.6874  37.3211  37.3211  38.7477  38.7477  38.7477  38.7477
    39.1834  39.1834  39.1844  39.1844  39.7942  39.7942  40.0670  40.0670
    41.0468  41.0468  41.0504  41.0504  42.8992  42.8992  43.8019  43.8019
    43.8019  43.8019  44.1793  44.1793  44.1801  44.1801  44.3306  44.3306
    44.8030  44.8030  44.8030  44.8030  44.8120  44.8120  45.2134  45.2134
    45.2138  45.2138  45.6572  45.6572  45.8497  45.8497  45.8497  45.8497
    46.3527  46.3527  46.4930  46.4930  46.4931  46.4931  46.9408  46.9408
    47.1564  47.1564  47.3842  47.3842  47.3847  47.3847  47.9179  47.9179
    47.9179  47.9179  48.2514  48.2514  49.3714  49.3714  49.6602  49.6602
    49.6603  49.6603  50.6641  50.6641  50.6641  50.6641  51.4817  51.4817
    52.3776  52.3776  52.5039  52.5039  52.5040  52.5042  52.6743  52.6743

          k = 0.3222 0.5774 0.0000 (  8546 PWs)   bands (ev):

   -16.7751 -16.7751 -16.5672 -16.5672 -14.6502 -14.6502  -4.1783  -4.1783
    -3.8723  -3.8723   6.6559   6.6559   8.7813   8.7813   8.8834   8.8834
     9.4562   9.4562  10.5378  10.5378  10.8107  10.8107  11.1468  11.1468
    11.2820  11.2820  11.4116  11.4116  11.6093  11.6093  11.9177  11.9177
    12.1435  12.1435  12.2317  12.2317  12.3874  12.3874  12.8745  12.8745
    12.9838  12.9838  13.8893  13.8893  14.1633  14.1633  14.2004  14.2004
    14.4759  14.4759  14.9394  14.9394  15.3657  15.3657  16.4116  16.4116
    16.7109  16.7109  17.2267  17.2267  17.3825  17.3825  17.5441  17.5441
    18.7218  18.7218  19.6414  19.6414  19.8998  19.8998  20.4912  20.4912
    20.8842  20.8842  21.0525  21.0525  21.3653  21.3653  22.8554  22.8554
    23.4939  23.4939  23.7157  23.7157  24.2743  24.2743  25.5592  25.5592
    25.8459  25.8459  27.7121  27.7121  27.9976  27.9976  28.2011  28.2011
    28.7525  28.7525  30.5023  30.5023  30.6621  30.6621  33.2152  33.2152
    33.2368  33.2368  33.4288  33.4288  33.9863  33.9863  34.5824  34.5824
    34.7547  34.7547  37.3676  37.3676  38.6949  38.6949  38.7663  38.7663
    39.0957  39.0957  39.1798  39.1798  39.8201  39.8201  40.1326  40.1326
    40.8972  40.8972  41.2146  41.2146  42.8285  42.8285  43.3482  43.3482
    43.8309  43.8309  43.9747  43.9747  44.2889  44.2889  44.5165  44.5165
    44.5271  44.5271  44.7537  44.7537  44.9932  44.9932  45.2698  45.2698
    45.3646  45.3646  45.5312  45.5312  46.0162  46.0162  46.0277  46.0277
    46.1012  46.1012  46.4570  46.4570  46.7582  46.7582  46.8906  46.8906
    46.9927  46.9927  47.3569  47.3569  47.5303  47.5303  47.6702  47.6702
    48.2367  48.2367  48.5139  48.5139  48.8643  48.8643  49.8214  49.8214
    50.0260  50.0260  50.2416  50.2416  50.9019  50.9019  51.6072  51.6072
    51.8391  51.8391  52.6370  52.6370  52.6488  52.6516  52.7676  52.7678

          k = 0.3111 0.5774 0.0000 (  8550 PWs)   bands (ev):

   -16.8812 -16.8812 -16.4977 -16.4977 -14.6007 -14.6007  -4.3270  -4.3270
    -3.7269  -3.7269   6.6707   6.6707   8.7028   8.7028   8.8555   8.8555
     9.4240   9.4240  10.3659  10.3659  10.7589  10.7589  11.0326  11.0326
    11.1944  11.1944  11.5761  11.5761  11.7390  11.7390  11.7449  11.7449
    12.0659  12.0659  12.2882  12.2882  12.5705  12.5705  12.9831  12.9831
    13.0805  13.0805  13.7627  13.7627  13.9924  13.9924  14.3766  14.3766
    14.5184  14.5184  15.0076  15.0076  15.5312  15.5312  16.2553  16.2553
    16.7689  16.7689  17.0588  17.0588  17.5586  17.5586  17.6155  17.6155
    18.8480  18.8480  19.4716  19.4716  19.8513  19.8513  20.7504  20.7504
    20.8665  20.8665  20.8902  20.8902  21.4556  21.4556  22.9524  22.9524
    23.3295  23.3295  23.6180  23.6180  24.5730  24.5730  25.4104  25.4104
    25.9384  25.9384  27.7822  27.7822  27.8318  27.8318  28.0849  28.0849
    29.0642  29.0642  30.4057  30.4057  30.6869  30.6869  33.0759  33.0759
    33.2379  33.2379  33.3086  33.3086  34.2903  34.2903  34.4311  34.4311
    34.8229  34.8229  37.4997  37.4997  38.6621  38.6621  38.7076  38.7076
    38.9912  38.9912  39.0664  39.0664  39.7593  39.7593  40.3115  40.3115
    40.8465  40.8465  41.4047  41.4047  42.5561  42.5561  42.7106  42.7106
    43.4335  43.4335  43.8676  43.8676  44.0665  44.0665  44.2828  44.2828
    44.8530  44.8530  44.8937  44.8937  45.2297  45.2297  45.2461  45.2461
    45.3521  45.3521  45.7432  45.7432  45.7922  45.7922  46.3084  46.3084
    46.3984  46.3984  46.4524  46.4524  46.5532  46.5532  46.7216  46.7216
    47.1549  47.1549  47.1658  47.1658  47.8050  47.8050  48.0100  48.0100
    48.2306  48.2306  48.5638  48.5638  48.8549  48.8549  49.6777  49.6777
    50.1601  50.1601  50.3997  50.3997  51.1043  51.1043  51.1756  51.1756
    51.7923  51.7923  52.6342  52.6342  52.7550  52.7552  52.8118  52.8118

          k = 0.3000 0.5774 0.0000 (  8542 PWs)   bands (ev):

   -16.9837 -16.9837 -16.4572 -16.4572 -14.5173 -14.5173  -4.4708  -4.4708
    -3.5889  -3.5889   6.6960   6.6960   8.6183   8.6183   8.7892   8.7892
     9.3442   9.3442  10.2000  10.2000  10.6496  10.6496  10.9149  10.9149
    11.0693  11.0693  11.5782  11.5782  11.6953  11.6953  11.9177  11.9177
    12.0018  12.0018  12.3857  12.3857  12.6311  12.6311  13.1435  13.1435
    13.3489  13.3489  13.6497  13.6497  13.8273  13.8273  14.4873  14.4873
    14.5093  14.5093  15.1762  15.1762  15.7723  15.7723  16.1060  16.1060
    16.7775  16.7775  16.8966  16.8966  17.6288  17.6288  17.8217  17.8217
    19.0472  19.0472  19.3061  19.3061  19.7664  19.7664  20.7330  20.7330
    20.8363  20.8363  21.0695  21.0695  21.4955  21.4955  23.1110  23.1110
    23.1733  23.1733  23.4939  23.4939  24.9143  24.9143  25.2654  25.2654
    25.9917  25.9917  27.6726  27.6726  27.8931  27.8931  27.9464  27.9464
    29.4113  29.4113  30.3057  30.3057  30.6733  30.6733  32.9205  32.9205
    33.1651  33.1651  33.2270  33.2270  34.3065  34.3065  34.6257  34.6257
    34.8879  34.8879  37.6951  37.6951  38.6043  38.6043  38.6512  38.6512
    38.8770  38.8770  38.8992  38.8992  39.5052  39.5052  40.5633  40.5633
    40.9591  40.9591  41.6123  41.6123  42.0400  42.0400  42.1308  42.1308
    42.9363  42.9363  43.2679  43.2679  44.0918  44.0918  44.2204  44.2204
    44.8106  44.8106  44.9621  44.9621  45.1729  45.1729  45.4515  45.4515
    45.5170  45.5170  45.9181  45.9181  46.0031  46.0031  46.1549  46.1549
    46.3178  46.3178  46.5990  46.5990  46.6013  46.6013  46.7245  46.7245
    47.3971  47.3971  47.5132  47.5132  47.5295  47.5295  48.1939  48.1939
    48.3753  48.3753  48.8951  48.8951  48.9437  48.9437  49.3450  49.3450
    50.4417  50.4417  50.5751  50.5751  50.7795  50.7795  51.2626  51.2626
    51.8305  51.8305  52.6982  52.6984  52.8383  52.8383  53.0196  53.0197

          k = 0.2889 0.5774 0.0000 (  8542 PWs)   bands (ev):

   -17.0825 -17.0825 -16.4433 -16.4433 -14.4028 -14.4028  -4.6096  -4.6096
    -3.4587  -3.4587   6.7321   6.7321   8.5294   8.5294   8.6976   8.6976
     9.2138   9.2138  10.0401  10.0401  10.5247  10.5247  10.7945  10.7945
    10.9325  10.9325  11.4174  11.4174  11.7005  11.7005  11.9472  11.9472
    12.1299  12.1299  12.5889  12.5889  12.5930  12.5930  13.4424  13.4424
    13.5517  13.5517  13.6164  13.6164  13.6682  13.6682  14.5093  14.5093
    14.5258  14.5258  15.4374  15.4374  15.9640  15.9640  16.0428  16.0428
    16.7401  16.7401  16.7764  16.7764  17.6174  17.6174  18.1280  18.1280
    19.1451  19.1451  19.2891  19.2891  19.6827  19.6827  20.5811  20.5811
    20.7934  20.7934  21.4120  21.4120  21.5037  21.5037  23.0256  23.0256
    23.3124  23.3124  23.3704  23.3704  25.1243  25.1243  25.2717  25.2717
    26.0172  26.0172  27.5199  27.5199  27.8079  27.8079  28.0277  28.0277
    29.7715  29.7715  30.2037  30.2037  30.6333  30.6333  32.7707  32.7707
    33.0205  33.0205  33.1267  33.1267  34.2870  34.2870  34.9461  34.9461
    34.9680  34.9680  37.9263  37.9263  38.4870  38.4870  38.6637  38.6637
    38.6740  38.6740  38.7578  38.7578  39.1604  39.1604  40.8531  40.8531
    41.0720  41.0720  41.3679  41.3679  41.7017  41.7017  41.8326  41.8326
    42.4337  42.4337  42.6237  42.6237  43.9133  43.9133  44.0762  44.0762
    44.5178  44.5178  44.8655  44.8655  45.4174  45.4174  45.6920  45.6920
    45.7877  45.7877  45.8410  45.8410  45.9810  45.9810  45.9856  45.9856
    46.4279  46.4279  46.8838  46.8838  46.8955  46.8955  46.9616  46.9616
    47.0692  47.0692  47.6748  47.6748  47.8770  47.8770  48.4037  48.4037
    48.5210  48.5210  48.7560  48.7560  49.2261  49.2261  49.6612  49.6612
[...]
    -2.3755  -2.3755   4.3031   4.3031   7.1509   7.1509   7.3373   7.3373
     7.8411   7.8411   8.1891   8.1891   9.1297   9.1297   9.1613   9.1613
     9.2570   9.2570   9.5585   9.5585  10.9319  10.9319  10.9697  10.9697
    11.0017  11.0017  11.8250  11.8250  13.1736  13.1736  13.3716  13.3716
    13.5516  13.5516  14.9213  14.9213  15.3318  15.3318  15.9375  15.9375
    16.6287  16.6287  16.9689  16.9689  18.5468  18.5468  18.8026  18.8026
    18.9491  18.9491  19.4323  19.4323  19.9243  19.9243  20.7489  20.7489
    21.1828  21.1828  21.3253  21.3253  21.5228  21.5228  22.1590  22.1590
    22.6951  22.6951  23.3112  23.3112  23.4290  23.4290  24.3152  24.3152
    25.1815  25.1815  25.7569  25.7569  25.8184  25.8184  26.5454  26.5454
    27.4459  27.4459  28.0313  28.0313  28.7584  28.7584  29.2488  29.2488
    29.2838  29.2838  30.0947  30.0947  30.1405  30.1405  31.0294  31.0294
    31.0414  31.0414  31.3512  31.3512  31.7146  31.7146  31.7977  31.7977
    32.9959  32.9959  33.1693  33.1693  34.0369  34.0369  34.6632  34.6632
    35.1559  35.1559  35.2552  35.2552  36.7701  36.7701  37.1094  37.1094
    37.2640  37.2640  37.5395  37.5395  37.8091  37.8091  38.3265  38.3265
    39.9236  39.9236  40.6261  40.6261  41.5779  41.5779  41.9253  41.9253
    42.9929  42.9929  43.8187  43.8187  43.9131  43.9131  44.4854  44.4854
    44.7843  44.7843  45.0057  45.0057  45.6551  45.6551  46.2309  46.2309
    46.4235  46.4235  48.6476  48.6476  48.7826  48.7826  49.9261  49.9261
    50.2610  50.2610  51.1795  51.1795  51.5977  51.5977  51.9783  51.9783
    51.9929  51.9929  52.6415  52.6415  53.1063  53.1063  53.2170  53.2170
    53.3313  53.3313  53.5109  53.5109  54.0474  54.0474  54.2642  54.2642
    54.4481  54.4481  54.5063  54.5063  55.2482  55.2482  55.4261  55.4261

          k = 0.0778 0.5774 0.0000 (  8516 PWs)   bands (ev):

   -18.2554 -18.2554 -17.2454 -17.2454 -10.9537 -10.9537  -6.2743  -6.2743
    -2.3631  -2.3631   4.1197   4.1197   7.1121   7.1121   7.2959   7.2959
     7.8459   7.8459   8.1436   8.1436   9.0860   9.0860   9.1168   9.1168
     9.2411   9.2411   9.5129   9.5129  10.8943  10.8943  10.9598  10.9598
    10.9971  10.9971  11.7797  11.7797  13.2257  13.2257  13.3602  13.3602
    13.5147  13.5147  14.8765  14.8765  15.4172  15.4172  15.9831  15.9831
    16.6068  16.6068  16.8708  16.8708  18.4823  18.4823  18.7586  18.7586
    18.8619  18.8619  19.7407  19.7407  20.1255  20.1255  20.8975  20.8975
    21.3202  21.3202  21.4874  21.4874  21.8165  21.8165  22.5725  22.5725
    22.8208  22.8208  23.3863  23.3863  23.7499  23.7499  24.5860  24.5860
    25.2811  25.2811  25.7782  25.7782  26.1360  26.1360  26.6018  26.6018
    27.6199  27.6199  27.7940  27.7940  28.7191  28.7191  28.8835  28.8835
    29.3734  29.3734  29.7900  29.7900  29.8507  29.8507  30.6363  30.6363
    30.9991  30.9991  31.2861  31.2861  31.3934  31.3934  32.0040  32.0040
    32.7304  32.7304  32.9537  32.9537  34.0587  34.0587  34.6354  34.6354
    34.7051  34.7051  35.1477  35.1477  36.5661  36.5661  37.0661  37.0661
    37.3034  37.3034  37.3844  37.3844  37.8552  37.8552  38.3348  38.3348
    39.5984  39.5984  40.6688  40.6688  41.3605  41.3605  41.6697  41.6697
    43.4549  43.4549  43.8314  43.8314  43.8652  43.8652  44.4259  44.4259
    44.6346  44.6346  45.2050  45.2050  45.7742  45.7742  45.8632  45.8632
    46.2853  46.2853  49.0018  49.0018  49.2265  49.2265  49.9662  49.9662
    50.0299  50.0299  50.7169  50.7169  51.6023  51.6023  51.8703  51.8703
    52.0343  52.0343  52.8826  52.8826  53.1284  53.1284  53.3531  53.3531
    53.4515  53.4515  53.4924  53.4924  54.4146  54.4146  54.5515  54.5515
    54.9328  54.9328  54.9414  54.9414  55.6837  55.6837  55.7205  55.7206

          k = 0.0667 0.5774 0.0000 (  8536 PWs)   bands (ev):

   -18.2798 -18.2798 -17.2695 -17.2695 -10.8355 -10.8355  -6.3092  -6.3092
    -2.3530  -2.3530   3.9572   3.9572   7.0784   7.0784   7.2600   7.2600
     7.8470   7.8470   8.1042   8.1042   9.0481   9.0481   9.0781   9.0781
     9.2269   9.2269   9.4734   9.4734  10.8614  10.8614  10.9234  10.9234
    11.0221  11.0221  11.7404  11.7404  13.2823  13.2823  13.3486  13.3486
    13.4824  13.4824  14.8377  14.8377  15.5091  15.5091  16.0446  16.0446
    16.5866  16.5866  16.7722  16.7722  18.3897  18.3897  18.7204  18.7204
    18.7840  18.7840  19.8440  19.8440  20.5282  20.5282  20.7499  20.7499
    21.4567  21.4567  21.7548  21.7548  22.3075  22.3075  22.9249  22.9249
    23.0151  23.0151  23.3493  23.3493  24.2139  24.2139  24.7027  24.7027
    25.5694  25.5694  25.7434  25.7434  26.3894  26.3894  26.6005  26.6005
    27.3609  27.3609  27.9263  27.9263  28.5827  28.5827  28.6848  28.6848
    28.9087  28.9087  29.5445  29.5445  30.0090  30.0090  30.4194  30.4194
    30.8387  30.8387  30.9625  30.9625  31.4275  31.4275  31.9320  31.9320
    32.6649  32.6649  32.7003  32.7003  34.0191  34.0191  34.5995  34.5995
    34.6108  34.6108  34.8858  34.8858  36.4203  36.4203  36.8861  36.8861
    37.0286  37.0286  37.6260  37.6260  37.6583  37.6583  38.7971  38.7971
    39.2041  39.2041  40.7022  40.7022  40.7962  40.7962  41.7801  41.7801
    43.8235  43.8235  43.8801  43.8801  43.9118  43.9118  44.3709  44.3709
    44.3752  44.3752  45.3297  45.3297  45.4006  45.4006  45.8776  45.8776
    46.4765  46.4765  49.1656  49.1656  49.6609  49.6609  49.9670  49.9670
    50.0207  50.0207  50.2215  50.2215  51.6079  51.6079  51.8116  51.8116
    52.0241  52.0241  52.8187  52.8187  53.0561  53.0561  53.2357  53.2357
    53.6499  53.6499  53.7599  53.7599  54.8705  54.8705  54.9635  54.9635
    55.3492  55.3492  55.4417  55.4417  55.9757  55.9757  56.1442  56.1446

          k = 0.0556 0.5774 0.0000 (  8520 PWs)   bands (ev):

   -18.3004 -18.3004 -17.2900 -17.2900 -10.7329 -10.7329  -6.3387  -6.3387
    -2.3448  -2.3448   3.8170   3.8170   7.0498   7.0498   7.2295   7.2295
     7.8458   7.8458   8.0709   8.0709   9.0160   9.0160   9.0454   9.0454
     9.2145   9.2145   9.4399   9.4399  10.8334  10.8334  10.8925  10.8925
    11.0438  11.0438  11.7072  11.7072  13.3374  13.3374  13.3393  13.3393
    13.4549  13.4549  14.8048  14.8048  15.6060  15.6060  16.1215  16.1215
    16.5689  16.5689  16.6729  16.6729  18.2749  18.2749  18.6881  18.6881
    18.7163  18.7163  19.8831  19.8831  20.5892  20.5892  20.9920  20.9920
    21.4306  21.4306  22.2244  22.2244  22.7648  22.7648  23.0523  23.0523
    23.3179  23.3179  23.4600  23.4600  24.6795  24.6795  24.7476  24.7476
    25.7140  25.7140  25.9634  25.9634  26.3041  26.3041  26.5138  26.5138
    27.5174  27.5174  27.6040  27.6040  28.3744  28.3744  28.5368  28.5368
    28.6558  28.6558  29.2824  29.2824  29.9837  29.9837  30.3629  30.3629
    30.6885  30.6885  30.9315  30.9315  31.4973  31.4973  31.5057  31.5057
    32.3855  32.3855  32.9477  32.9477  33.6621  33.6621  34.5437  34.5437
    34.5896  34.5896  34.9546  34.9546  36.3393  36.3393  36.3766  36.3766
    36.9968  36.9968  37.5599  37.5599  37.8821  37.8821  38.8315  38.8315
    39.2723  39.2723  40.2463  40.2463  40.7278  40.7278  41.8289  41.8289
    43.7882  43.7882  43.9059  43.9059  44.1859  44.1859  44.2051  44.2051
    44.3787  44.3787  44.9178  44.9178  45.5852  45.5852  45.9651  45.9651
    46.6870  46.6870  49.0576  49.0576  49.6747  49.6747  50.0931  50.0931
    50.1204  50.1204  50.1755  50.1755  51.6144  51.6144  51.8223  51.8223
    52.0051  52.0051  52.4868  52.4868  52.8882  52.8882  53.1211  53.1211
    54.0208  54.0208  54.0722  54.0722  55.3506  55.3506  55.4150  55.4150
    55.7571  55.7571  55.8005  55.8005  55.9208  55.9208  56.1104  56.1104

          k = 0.0444 0.5774 0.0000 (  8502 PWs)   bands (ev):

   -18.3173 -18.3173 -17.3068 -17.3068 -10.6473 -10.6473  -6.3629  -6.3629
    -2.3385  -2.3385   3.7004   3.7004   7.0264   7.0264   7.2046   7.2046
     7.8434   7.8434   8.0436   8.0436   8.9897   8.9897   9.0186   9.0186
     9.2041   9.2041   9.4125   9.4125  10.8104  10.8104  10.8672  10.8672
    11.0615  11.0615  11.6800  11.6800  13.3276  13.3276  13.3923  13.3923
    13.4323  13.4323  14.7779  14.7779  15.7062  15.7062  16.2114  16.2114
    16.5538  16.5538  16.5729  16.5729  18.1449  18.1449  18.6596  18.6596
    18.6617  18.6617  19.9047  19.9047  20.4494  20.4494  21.4092  21.4092
    21.4692  21.4692  22.6997  22.6997  22.9932  22.9932  23.2923  23.2923
    23.3983  23.3983  23.8790  23.8790  24.8119  24.8119  25.1013  25.1013
    25.6900  25.6900  25.9090  25.9090  26.3720  26.3720  26.5836  26.5836
    27.1377  27.1377  27.6502  27.6502  28.0599  28.0599  28.2657  28.2657
    28.6320  28.6320  29.2829  29.2829  29.5692  29.5692  30.4221  30.4221
    30.8770  30.8770  30.9062  30.9062  31.0631  31.0631  31.5453  31.5453
    32.1320  32.1320  33.1824  33.1824  33.3168  33.3168  34.2516  34.2516
    34.5721  34.5721  35.4041  35.4041  35.8475  35.8475  36.2923  36.2923
    36.9708  36.9708  37.4996  37.4996  37.9407  37.9407  38.6881  38.6881
    39.5539  39.5539  39.9061  39.9061  40.7469  40.7469  41.7727  41.7727
    43.7593  43.7593  43.7617  43.7617  43.9533  43.9533  44.2747  44.2747
    44.3902  44.3902  45.0670  45.0670  45.7511  45.7511  46.0367  46.0367
    46.8365  46.8365  48.8988  48.8988  49.1580  49.1580  50.1863  50.1863
    50.4556  50.4556  50.5246  50.5246  51.6213  51.6213  51.9203  51.9203
    51.9933  51.9933  52.1576  52.1576  52.5181  52.5181  53.1323  53.1323
    54.2281  54.2281  54.5381  54.5381  55.2967  55.2967  55.7179  55.7179
    55.8393  55.8393  55.9210  55.9210  56.1604  56.1604  56.4801  56.4802

          k = 0.0333 0.5774 0.0000 (  8506 PWs)   bands (ev):

   -18.3304 -18.3304 -17.3199 -17.3199 -10.5796 -10.5796  -6.3817  -6.3817
    -2.3338  -2.3338   3.6085   3.6085   7.0081   7.0081   7.1851   7.1851
     7.8406   7.8406   8.0224   8.0224   8.9692   8.9692   8.9978   8.9978
     9.1957   9.1957   9.3912   9.3912  10.7924  10.7924  10.8475  10.8475
    11.0750  11.0750  11.6589  11.6589  13.3194  13.3194  13.4146  13.4146
    13.4377  13.4377  14.7570  14.7570  15.8080  15.8080  16.3083  16.3083
    16.4723  16.4723  16.5419  16.5419  18.0101  18.0101  18.6148  18.6148
    18.6410  18.6410  19.9180  19.9180  20.3388  20.3388  21.3925  21.3925
    21.9468  21.9468  23.0683  23.0683  23.1659  23.1659  23.2723  23.2723
    23.8811  23.8811  24.2163  24.2163  24.9768  24.9768  25.1598  25.1598
    25.6713  25.6713  25.8558  25.8558  26.4742  26.4742  26.6292  26.6292
    26.9423  26.9423  27.2011  27.2011  27.8421  27.8421  28.3423  28.3423
    28.6134  28.6134  29.1318  29.1318  29.3241  29.3241  30.4883  30.4883
    30.7958  30.7958  30.8865  30.8865  31.0110  31.0110  31.4246  31.4246
    32.1157  32.1157  33.0841  33.0841  33.1248  33.1248  34.2269  34.2269
    34.5583  34.5583  35.3155  35.3155  35.8868  35.8868  36.2615  36.2615
    36.9505  36.9505  37.4583  37.4583  37.6684  37.6684  38.9056  38.9056
    39.0897  39.0897  40.3276  40.3276  40.7607  40.7607  41.6091  41.6091
    43.4775  43.4775  43.6128  43.6128  43.7368  43.7368  44.3397  44.3397
    44.4827  44.4827  45.5212  45.5212  45.8905  45.8905  46.0922  46.0922
    46.8701  46.8701  48.6312  48.6312  48.8245  48.8245  50.3015  50.3015
    50.6876  50.6876  50.9023  50.9023  51.6278  51.6278  51.8447  51.8447
    51.9981  51.9981  52.1268  52.1268  52.1618  52.1618  53.1043  53.1043
    54.3816  54.3816  54.7918  54.7918  54.9993  54.9993  55.4123  55.4123
    56.3269  56.3269  56.3961  56.3962  56.5610  56.5610  56.9930  56.9931

          k = 0.0222 0.5774 0.0000 (  8516 PWs)   bands (ev):

   -18.3398 -18.3398 -17.3293 -17.3293 -10.5306 -10.5306  -6.3952  -6.3952
    -2.3306  -2.3306   3.5422   3.5422   6.9950   6.9950   7.1713   7.1713
     7.8382   7.8382   8.0073   8.0073   8.9546   8.9546   8.9829   8.9829
     9.1896   9.1896   9.3760   9.3760  10.7796  10.7796  10.8334  10.8334
    11.0845  11.0845  11.6438  11.6438  13.3132  13.3132  13.4020  13.4020
    13.4722  13.4722  14.7421  14.7421  15.9089  15.9089  16.3731  16.3731
    16.4007  16.4007  16.5332  16.5332  17.8865  17.8865  18.5823  18.5823
    18.6263  18.6263  19.9262  19.9262  20.2599  20.2599  21.3805  21.3805
    22.4111  22.4111  23.1117  23.1117  23.2580  23.2580  23.5908  23.5908
    24.3261  24.3261  24.4434  24.4434  24.8403  24.8403  25.2994  25.2994
    25.6580  25.6580  26.0215  26.0215  26.2179  26.2179  26.5447  26.5447
    26.8267  26.8267  27.0857  27.0857  27.5917  27.5917  28.3493  28.3493
    28.6002  28.6002  29.0514  29.0514  29.2207  29.2207  30.2863  30.2863
    30.8539  30.8539  30.8724  30.8724  31.0230  31.0230  31.3778  31.3778
    32.1599  32.1599  32.7916  32.7916  33.0927  33.0927  34.4403  34.4403
    34.5484  34.5484  34.7971  34.7971  36.2390  36.2390  36.3786  36.3786
    36.9360  36.9360  37.3333  37.3333  37.4291  37.4291  38.5633  38.5633
    39.2172  39.2172  40.7700  40.7700  40.8291  40.8291  41.3781  41.3781
    42.9583  42.9583  43.5183  43.5183  43.7208  43.7208  44.3129  44.3129
    44.7110  44.7110  45.9961  45.9961  46.0146  46.0146  46.1318  46.1318
    46.7903  46.7903  48.1053  48.1053  48.8504  48.8504  50.4355  50.4355
    50.8468  50.8468  51.2150  51.2150  51.5620  51.5620  51.6331  51.6331
    51.8442  51.8442  52.0321  52.0321  52.4463  52.4463  53.0393  53.0393
    54.2821  54.2821  54.4853  54.4853  55.0610  55.0610  55.5675  55.5675
    56.7978  56.7978  56.8546  56.8546  56.9511  56.9512  57.4611  57.4612

          k = 0.0111 0.5774 0.0000 (  8516 PWs)   bands (ev):

   -18.3454 -18.3454 -17.3349 -17.3349 -10.5010 -10.5010  -6.4033  -6.4033
    -2.3286  -2.3286   3.5021   3.5021   6.9872   6.9872   7.1629   7.1629
     7.8365   7.8365   7.9982   7.9982   8.9458   8.9458   8.9740   8.9740
     9.1859   9.1859   9.3669   9.3669  10.7718  10.7718  10.8249  10.8249
    11.0901  11.0901  11.6347  11.6347  13.3095  13.3095  13.3943  13.3943
    13.4938  13.4938  14.7331  14.7331  16.0020  16.0020  16.2814  16.2814
    16.4707  16.4707  16.5279  16.5279  17.7960  17.7960  18.5626  18.5626
    18.6175  18.6175  19.9307  19.9307  20.2129  20.2129  21.3734  21.3734
    22.8230  22.8230  23.1355  23.1355  23.2495  23.2495  23.8936  23.8936
    24.2644  24.2644  24.6822  24.6822  25.0201  25.0201  25.5192  25.5192
    25.6500  25.6500  25.7363  25.7363  26.0556  26.0556  26.5387  26.5387
    26.7194  26.7194  26.9343  26.9343  27.8640  27.8640  27.9516  27.9516
    28.5922  28.5922  28.9780  28.9780  29.3792  29.3792  30.1500  30.1500
    30.5125  30.5125  30.8640  30.8640  31.3847  31.3847  31.4539  31.4539
    32.0968  32.0968  32.3876  32.3876  33.3699  33.3699  34.2995  34.2995
    34.5424  34.5424  34.6617  34.6617  36.2218  36.2218  36.8668  36.8668
    36.9274  36.9274  37.0720  37.0720  37.4026  37.4026  38.0627  38.0627
    39.4864  39.4864  40.7753  40.7753  41.1551  41.1551  41.3351  41.3351
    42.4396  42.4396  43.4692  43.4692  43.7111  43.7111  44.2989  44.2989
    44.8986  44.8986  46.0621  46.0621  46.1556  46.1556  46.5162  46.5162
    46.6722  46.6722  47.5868  47.5868  48.9154  48.9154  50.5700  50.5700
    50.9492  50.9492  51.3352  51.3352  51.4156  51.4156  51.6073  51.6073
    51.6365  51.6365  52.1002  52.1002  52.8457  52.8457  52.9537  52.9537
    53.7824  53.7824  54.5449  54.5449  54.8959  54.8959  56.0268  56.0268
    57.2042  57.2043  57.2068  57.2069  57.2283  57.2284  57.2936  57.2936

          k = 0.0000 0.5774 0.0000 (  8514 PWs)   bands (ev):

   -18.3473 -18.3473 -17.3368 -17.3368 -10.4910 -10.4910  -6.4059  -6.4059
    -2.3280  -2.3280   3.4887   3.4887   6.9846   6.9846   7.1602   7.1602
     7.8359   7.8359   7.9951   7.9951   8.9429   8.9429   8.9710   8.9710
     9.1846   9.1846   9.3639   9.3639  10.7692  10.7692  10.8221  10.8221
    11.0920  11.0920  11.6317  11.6317  13.3082  13.3082  13.3918  13.3918
    13.5012  13.5012  14.7301  14.7301  16.0526  16.0526  16.2313  16.2313
    16.4974  16.4974  16.5261  16.5261  17.7621  17.7621  18.5560  18.5560
    18.6146  18.6146  19.9322  19.9322  20.1974  20.1974  21.3710  21.3710
    23.0305  23.0305  23.1393  23.1393  23.2466  23.2466  23.9939  23.9939
    24.0865  24.0865  24.9908  24.9908  25.1273  25.1273  25.4317  25.4317
    25.6244  25.6244  25.6473  25.6473  26.0900  26.0900  26.3546  26.3546
    26.6060  26.6060  27.1561  27.1561  27.6649  27.6649  28.0658  28.0658
    28.5896  28.5896  28.8048  28.8048  29.5954  29.5954  30.1118  30.1118
    30.2997  30.2997  30.8612  30.8612  31.4957  31.4957  31.6410  31.6410
    32.0497  32.0497  32.1177  32.1177  33.6857  33.6857  33.9274  33.9274
    34.5404  34.5404  34.7546  34.7546  36.2140  36.2140  36.9245  36.9245
    36.9707  36.9707  37.2368  37.2368  37.3216  37.3216  37.7608  37.7608
    39.6011  39.6011  40.7770  40.7770  41.0547  41.0547  41.7212  41.7212
    42.0488  42.0488  43.4542  43.4542  43.7079  43.7079  44.2945  44.2945
    44.9744  44.9744  46.0846  46.0846  46.1635  46.1635  46.6157  46.6157
    46.9203  46.9203  47.1772  47.1772  48.9472  48.9472  50.6391  50.6391
    50.9916  50.9916  51.2348  51.2348  51.4806  51.4806  51.5116  51.5116
    51.6377  51.6377  52.1450  52.1450  52.9073  52.9073  53.2599  53.2599
    53.3373  53.3373  54.5642  54.5642  54.8346  54.8346  56.3244  56.3244
    56.9131  56.9131  57.3793  57.3793  57.3928  57.3929  57.4577  57.4577

     the Fermi energy is    -4.0247 ev

!    total energy              =     -24.04117344 Ry
     estimated scf accuracy    <          3.3E-09 Ry
     smearing contrib. (-TS)   =      -0.00000108 Ry
     internal energy E=F+TS    =     -24.04117236 Ry

     The total energy is F=E-TS. E is the sum of the following terms:
     one-electron contribution =    -359.37406752 Ry
     hartree contribution      =     180.53632911 Ry
     xc contribution           =      -8.59979756 Ry
     ewald contribution        =     163.39636361 Ry

     convergence has been achieved in   7 iterations

     Writing all to output data dir ./outdir/graphene.save/

     init_run     :    405.01s CPU     74.57s WALL (       1 calls)
     electrons    :   9994.24s CPU   1621.95s WALL (       1 calls)

     Called by init_run:
     wfcinit      :    401.42s CPU     73.24s WALL (       1 calls)
     potinit      :      1.61s CPU      0.46s WALL (       1 calls)
     hinit0       :      1.88s CPU      0.77s WALL (       1 calls)

     Called by electrons:
     c_bands      :   8323.48s CPU   1340.46s WALL (       7 calls)
     sum_band     :   1665.01s CPU    280.42s WALL (       7 calls)
     v_of_rho     :      3.49s CPU      0.59s WALL (       8 calls)
     mix_rho      :      1.13s CPU      0.29s WALL (       7 calls)

     Called by c_bands:
     init_us_2    :      5.43s CPU      1.10s WALL (     915 calls)
     init_us_2:cp :      5.41s CPU      1.10s WALL (     915 calls)
     cegterg      :   8293.33s CPU   1333.22s WALL (     427 calls)

     Called by *egterg:
     cdiaghg      :    299.15s CPU     68.21s WALL (    2136 calls)
     h_psi        :   7077.65s CPU   1131.23s WALL (    2197 calls)
     g_psi        :     20.76s CPU      2.99s WALL (    1709 calls)

     Called by h_psi:
     h_psi:calbec :     74.28s CPU      7.08s WALL (    2197 calls)
     vloc_psi     :   6871.22s CPU   1109.50s WALL (    2197 calls)
     add_vuspsi   :     76.17s CPU      6.93s WALL (    2197 calls)

     General routines
     calbec       :     74.23s CPU      7.08s WALL (    2197 calls)
     fft          :      3.16s CPU      0.89s WALL (     157 calls)
     ffts         :      1.01s CPU      0.34s WALL (      60 calls)
     fftw         :   5879.72s CPU    963.27s WALL ( 1089912 calls)
     interpolate  :      1.55s CPU      0.43s WALL (      32 calls)

     Parallel routines

     PWSCF        :      2h53m CPU  28m18.72s WALL


   This run was terminated on:  23: 5:57  24Aug2022            

=------------------------------------------------------------------------------=
   JOB DONE.
=------------------------------------------------------------------------------=
