
     Program PWSCF v.7.0 starts on 24Aug2022 at 22:28:41 
        Git branch: HEAD
        Last git commit: bcbb9787c58f17a467653707917172ffc4053dd9-dirty
        Last git commit date: Tue Dec 21 10:27:04 2021 +0000
        Last git commit subject: Merge branch pw2gt_cmplx into develop         

     This program is part of the open-source Quantum ESPRESSO suite
     for quantum simulation of materials; please cite
         "P. Giannozzi et al., J. Phys.:Condens. Matter 21 395502 (2009);
         "P. Giannozzi et al., J. Phys.:Condens. Matter 29 465901 (2017);
         "P. Giannozzi et al., J. Chem. Phys. 152 154105 (2020);
          URL http://www.quantum-espresso.org", 
     in publications or presentations arising from this work. More details at
     http://www.quantum-espresso.org/quote

     Parallel version (MPI & OpenMP), running on       6 processor cores
     Number of MPI processes:                 1
     Threads/MPI process:                     6

     MPI processes distributed on     1 nodes
     26465 MiB available memory on the printing compute node when the environment starts

     Reading input from scf.in

     Current dimensions of program PWSCF are:
     Max number of different atomic species (ntypx) = 10
     Max number of k-points (npk) =  40000
     Max angular momentum in pseudopotentials (lmaxx) =  4

     Subspace diagonalization in iterative solution of the eigenvalue problem:
     a serial algorithm will be used


     G-vector sticks info
     --------------------
     sticks:   dense  smooth     PW     G-vecs:    dense   smooth      PW
     Sum        1189     475    151               270173    68333   11465

     Using Slab Decomposition



     bravais-lattice index     =            4
     lattice parameter (alat)  =       4.6487  a.u.
     unit-cell volume          =     707.3387 (a.u.)^3
     number of atoms/cell      =            2
     number of atomic types    =            1
     number of electrons       =         8.00
     number of Kohn-Sham states=          200
     kinetic-energy cutoff     =      80.0000  Ry
     charge density cutoff     =     800.0000  Ry
     scf convergence threshold =      1.0E-08
     mixing beta               =       0.3000
     number of iterations used =            8  plain     mixing
     Exchange-correlation= PBE
                           (   1   4   3   4   0   0   0)
     Non magnetic calculation with spin-orbit


     celldm(1)=   4.648726  celldm(2)=   0.000000  celldm(3)=   8.130081
     celldm(4)=   0.000000  celldm(5)=   0.000000  celldm(6)=   0.000000

     crystal axes: (cart. coord. in units of alat)
               a(1) = (   1.000000   0.000000   0.000000 )  
               a(2) = (  -0.500000   0.866025   0.000000 )  
               a(3) = (   0.000000   0.000000   8.130081 )  

     reciprocal axes: (cart. coord. in units 2 pi/alat)
               b(1) = (  1.000000  0.577350 -0.000000 )  
               b(2) = (  0.000000  1.154701  0.000000 )  
               b(3) = (  0.000000 -0.000000  0.123000 )  


     PseudoPot. # 1 for C  read from file:
     ../../pseudos/ONCVPSP/abinit/C_ONCV_PBE_fr.upf
     MD5 check sum: 289937457f5bc26ca1c868156df6bf43
     Pseudo is Norm-conserving + core correction, Zval =  4.0
     Generated using ONCVPSP code by D. R. Hamann
     Using radial grid of 1248 points,  6 beta functions with: 
                l(1) =   0
                l(2) =   0
                l(3) =   1
                l(4) =   1
                l(5) =   1
                l(6) =   1

     atomic species   valence    mass     pseudopotential
        C              4.00    12.01070     C ( 1.00)

     24 Sym. Ops., with inversion, found



   Cartesian axes

     site n.     atom                  positions (alat units)
         1           C   tau(   1) = (  -0.0000000   0.5773503   0.0000000  )
         2           C   tau(   2) = (   0.5000000   0.2886751   0.0000000  )

     number of k points=    19  Marzari-Vanderbilt smearing, width (Ry)=  0.0001
                       cart. coord. in units 2pi/alat
        k(    1) = (   0.0000000   0.0000000   0.0000000), wk =   0.0069444
        k(    2) = (   0.0000000   0.0962250   0.0000000), wk =   0.0416667
        k(    3) = (   0.0000000   0.1924501   0.0000000), wk =   0.0416667
        k(    4) = (   0.0000000   0.2886751   0.0000000), wk =   0.0416667
        k(    5) = (   0.0000000   0.3849002   0.0000000), wk =   0.0416667
        k(    6) = (   0.0000000   0.4811252   0.0000000), wk =   0.0416667
        k(    7) = (   0.0000000  -0.5773503   0.0000000), wk =   0.0208333
        k(    8) = (   0.0833333   0.1443376   0.0000000), wk =   0.0416667
        k(    9) = (   0.0833333   0.2405626   0.0000000), wk =   0.0833333
        k(   10) = (   0.0833333   0.3367877   0.0000000), wk =   0.0833333
        k(   11) = (   0.0833333   0.4330127   0.0000000), wk =   0.0833333
        k(   12) = (   0.0833333   0.5292377   0.0000000), wk =   0.0833333
        k(   13) = (   0.1666667   0.2886751   0.0000000), wk =   0.0416667
        k(   14) = (   0.1666667   0.3849002   0.0000000), wk =   0.0833333
        k(   15) = (   0.1666667   0.4811252   0.0000000), wk =   0.0833333
        k(   16) = (   0.1666667   0.5773503   0.0000000), wk =   0.0416667
        k(   17) = (   0.2500000   0.4330127   0.0000000), wk =   0.0416667
        k(   18) = (   0.2500000   0.5292377   0.0000000), wk =   0.0833333
        k(   19) = (   0.3333333   0.5773503   0.0000000), wk =   0.0138889

     Dense  grid:   270173 G-vectors     FFT dimensions: (  45,  45, 360)

     Smooth grid:    68333 G-vectors     FFT dimensions: (  27,  27, 216)

     Estimated max dynamical RAM per process >       1.71 GB
 ----2D----2D----2D----2D----2D----2D----2D----2D----2D----2D----2D----2D
  The code is running with the 2D cutoff
  Please refer to:
  Sohier, T., Calandra, M., & Mauri, F. (2017), 
  Density functional perturbation theory for gated two-dimensional heterostructures:
  Theoretical developments and application to flexural phonons in graphene.
  Physical Review B, 96(7), 75448. https://doi.org/10.1103/PhysRevB.96.075448
 ----2D----2D----2D----2D----2D----2D----2D----2D----2D----2D----2D----2D

     Initial potential from superposition of free atoms

     starting charge       7.9999, renormalised to       8.0000

     negative rho (up, down):  3.544E-07 0.000E+00
     Starting wfcs are   16 randomized atomic wfcs +  184 random wfcs

     total cpu time spent up to now is       25.7 secs

     per-process dynamical memory:  1356.4 Mb

     Self-consistent Calculation

     iteration #  1     ecut=    80.00 Ry     beta= 0.30
     Davidson diagonalization with overlap
     ethr =  1.00E-02,  avg # of iterations =  8.5

     negative rho (up, down):  1.254E-07 0.000E+00

     total cpu time spent up to now is      171.7 secs

     total energy              =     -24.11609426 Ry
     estimated scf accuracy    <       0.20476796 Ry

     iteration #  2     ecut=    80.00 Ry     beta= 0.30
     Davidson diagonalization with overlap
     ethr =  2.56E-03,  avg # of iterations =  1.3

     negative rho (up, down):  7.820E-06 0.000E+00

     total cpu time spent up to now is      229.2 secs

     total energy              =     -24.08420319 Ry
     estimated scf accuracy    <       0.06673863 Ry

     iteration #  3     ecut=    80.00 Ry     beta= 0.30
     Davidson diagonalization with overlap
     ethr =  8.34E-04,  avg # of iterations =  2.7

     negative rho (up, down):  9.703E-06 0.000E+00

     total cpu time spent up to now is      290.7 secs

     total energy              =     -24.09434441 Ry
     estimated scf accuracy    <       0.00116954 Ry

     iteration #  4     ecut=    80.00 Ry     beta= 0.30
     Davidson diagonalization with overlap
     ethr =  1.46E-05,  avg # of iterations =  6.4

     negative rho (up, down):  7.173E-06 0.000E+00

     total cpu time spent up to now is      357.1 secs

     total energy              =     -24.09434608 Ry
     estimated scf accuracy    <       0.00023225 Ry

     iteration #  5     ecut=    80.00 Ry     beta= 0.30
     Davidson diagonalization with overlap
     c_bands:  1 eigenvalues not converged
     ethr =  2.90E-06,  avg # of iterations =  5.5

     negative rho (up, down):  5.027E-06 0.000E+00

     total cpu time spent up to now is      420.2 secs

     total energy              =     -24.09438074 Ry
     estimated scf accuracy    <       0.00000082 Ry

     iteration #  6     ecut=    80.00 Ry     beta= 0.30
     Davidson diagonalization with overlap
     ethr =  1.02E-08,  avg # of iterations =  2.1

     negative rho (up, down):  3.406E-06 0.000E+00

     total cpu time spent up to now is      479.4 secs

     total energy              =     -24.09438094 Ry
     estimated scf accuracy    <       0.00000031 Ry

     iteration #  7     ecut=    80.00 Ry     beta= 0.30
     Davidson diagonalization with overlap
     ethr =  3.84E-09,  avg # of iterations =  1.2

     total cpu time spent up to now is      536.0 secs

     End of self-consistent calculation

          k = 0.0000 0.0000 0.0000 (  8603 PWs)   bands (ev):

   -23.8167 -23.8167 -11.8960 -11.8960  -7.2787  -7.2787  -7.2695  -7.2695
    -0.9714  -0.9714  -0.1781  -0.1781   0.7503   0.7503   1.1685   1.1685
     2.6974   2.6974   3.4798   3.4798   4.2157   4.2157   4.2235   4.2235
     5.3970   5.3970   6.6099   6.6099   7.2719   7.2719   8.4700   8.4700
     8.7490   8.7490  10.5020  10.5020  12.6768  12.6768  15.1011  15.1011
    17.2408  17.2408  18.4023  18.4023  20.3078  20.3078  22.5552  22.5552
    24.2793  24.2793  24.2793  24.2793  25.5975  25.5975  27.5633  27.5633
    27.5633  27.5633  28.6823  28.6823  29.2616  29.2616  31.1281  31.1281
    31.1287  31.1287  31.6369  31.6369  31.6382  31.6382  32.1524  32.1524
    32.3597  32.3597  32.7197  32.7197  33.0337  33.0337  33.1712  33.1712
    33.1712  33.1712  33.3535  33.3535  33.3535  33.3535  33.6924  33.6924
    33.6925  33.6925  33.7520  33.7520  33.7523  33.7523  33.8943  33.8943
    33.9881  33.9881  33.9993  33.9993  34.0897  34.0897  34.5233  34.5233
    34.5233  34.5233  34.7705  34.7705  34.7705  34.7705  35.2652  35.2652
    35.4285  35.4285  35.4287  35.4287  35.5151  35.5151  35.5158  35.5158
    35.6082  35.6082  35.8534  35.8534  36.1287  36.1287  36.2050  36.2050
    36.9524  36.9524  36.9524  36.9524  37.2697  37.2697  37.2697  37.2697
    37.3570  37.3570  38.0179  38.0179  38.0181  38.0181  38.0279  38.0279
    38.0292  38.0292  38.5671  38.5671  38.9822  38.9822  39.1212  39.1212
    40.0769  40.0769  40.2379  40.2379  40.2379  40.2379  40.6296  40.6296
    40.6296  40.6296  41.0989  41.0989  41.1012  41.1012  41.3084  41.3084
    41.3088  41.3088  41.9297  41.9297  42.1959  42.1959  42.3521  42.3521
    42.9501  42.9501  43.3726  43.3726  44.3127  44.3127  44.3127  44.3127
    44.4135  44.4135  44.4177  44.4178  44.7679  44.7679  44.7679  44.7679
    44.9457  44.9457  45.1827  45.1827  45.1831  45.1831  45.8618  45.8620

          k = 0.0000 0.0962 0.0000 (  8645 PWs)   bands (ev):

   -23.6522 -23.6522 -11.6986 -11.6986  -7.9277  -7.9277  -7.6163  -7.6163
    -0.7476  -0.7476   0.0486   0.0486   0.9783   0.9783   1.3955   1.3955
     2.9215   2.9215   3.7044   3.7044   4.2881   4.2881   4.9207   4.9207
     5.6274   5.6274   6.7085   6.7085   6.8310   6.8310   8.7702   8.7702
     8.9758   8.9758  10.7136  10.7136  12.9016  12.9016  15.2882  15.2882
    17.4620  17.4620  18.9170  18.9170  20.3225  20.3225  22.6354  22.6354
    22.7757  22.7757  22.9632  22.9632  25.4631  25.4631  26.7099  26.7099
    27.5972  27.5972  28.0556  28.0556  28.5322  28.5322  28.8942  28.8942
    28.9019  28.9019  29.2391  29.2391  29.3014  29.3014  29.7731  29.7731
    30.4352  30.4352  30.6856  30.6856  30.7957  30.7957  31.1977  31.1977
    31.3973  31.3973  31.5717  31.5717  31.7854  31.7854  32.1463  32.1463
    32.2628  32.2628  32.9597  32.9597  32.9607  32.9607  33.3552  33.3552
    34.0896  34.0896  34.2766  34.2766  34.4242  34.4242  34.5765  34.5765
    34.9862  34.9862  35.4690  35.4690  35.5476  35.5476  35.8108  35.8108
    35.8961  35.8961  36.1926  36.1926  36.2608  36.2608  36.3704  36.3704
    36.6874  36.6874  36.9096  36.9096  37.0245  37.0245  37.3791  37.3791
    37.5716  37.5716  37.7960  37.7960  37.9642  37.9642  38.3867  38.3867
    38.7036  38.7036  38.7755  38.7755  38.8670  38.8670  39.0077  39.0077
    39.2655  39.2655  39.6651  39.6651  39.7521  39.7521  40.1001  40.1001
    40.1904  40.1904  40.3015  40.3015  40.8588  40.8588  41.1043  41.1043
    41.1742  41.1742  41.4984  41.4984  41.9906  41.9906  42.0351  42.0351
    42.4614  42.4614  42.6614  42.6614  43.0032  43.0032  43.3876  43.3876
    43.4491  43.4491  43.6575  43.6575  43.8972  43.8972  43.9647  43.9647
    43.9651  43.9651  44.1778  44.1778  45.2925  45.2925  45.5961  45.5961
    46.1012  46.1012  46.1102  46.1102  46.4275  46.4275  46.7912  46.7914

          k = 0.0000 0.1925 0.0000 (  8577 PWs)   bands (ev):

   -23.1605 -23.1605 -11.1116 -11.1116  -9.5734  -9.5734  -8.4177  -8.4177
    -0.0765  -0.0765   0.7272   0.7272   1.6625   1.6625   2.0754   2.0754
     3.5883   3.5883   4.2540   4.2540   4.3728   4.3728   5.2009   5.2009
     6.3070   6.3070   6.7772   6.7772   7.4887   7.4887   9.6346   9.6346
     9.7487   9.7487  11.3358  11.3358  13.5703  13.5703  15.7621  15.7621
    18.1074  18.1074  18.9812  18.9812  19.9439  19.9439  21.1209  21.1209
    21.5735  21.5735  22.3737  22.3737  23.2811  23.2811  23.4523  23.4523
    23.8171  23.8171  24.5437  24.5437  25.7262  25.7262  25.9858  25.9858
    26.8652  26.8652  27.3496  27.3496  27.7725  27.7725  27.8161  27.8161
    28.4352  28.4352  28.6241  28.6241  29.0654  29.0654  29.1334  29.1334
    29.3702  29.3702  29.5644  29.5644  29.9686  29.9686  30.3500  30.3500
    30.4290  30.4290  30.9081  30.9081  31.3308  31.3308  31.7266  31.7266
    32.1399  32.1399  32.3924  32.3924  33.0012  33.0012  33.4925  33.4925
    34.0738  34.0738  34.0856  34.0856  34.3998  34.3998  35.4529  35.4529
    35.8653  35.8653  36.1412  36.1412  36.3519  36.3519  36.7310  36.7310
    37.3600  37.3600  37.3802  37.3802  37.6104  37.6104  38.2765  38.2765
    38.7493  38.7493  39.6520  39.6520  39.7152  39.7152  39.7719  39.7719
    39.8578  39.8578  39.9724  39.9724  40.0177  40.0177  40.4458  40.4458
    40.4735  40.4735  40.8845  40.8845  40.9128  40.9128  41.1081  41.1081
    41.5820  41.5820  41.7709  41.7709  42.2116  42.2116  42.5729  42.5729
    43.0573  43.0573  43.4668  43.4668  43.5364  43.5364  44.0379  44.0379
    44.0605  44.0605  44.5266  44.5266  44.7929  44.7929  44.8251  44.8251
    45.2057  45.2057  45.2648  45.2648  45.3010  45.3010  45.5220  45.5220
    46.1019  46.1019  46.2638  46.2638  46.2884  46.2884  46.3957  46.3957
    46.8320  46.8320  46.8926  46.8926  47.7168  47.7168  48.5226  48.5226

          k = 0.0000 0.2887 0.0000 (  8555 PWs)   bands (ev):

   -22.3472 -22.3472 -11.6827 -11.6827 -10.1545 -10.1545  -9.3076  -9.3076
     1.0400   1.0400   1.8427   1.8427   2.8009   2.8009   3.0246   3.0246
     3.2834   3.2834   3.9503   3.9503   4.7545   4.7545   5.5009   5.5009
     7.4286   7.4286   8.5712   8.5712   9.3408   9.3408  10.7507  10.7507
    11.0988  11.0988  12.3024  12.3024  14.6700  14.6700  15.6303  15.6303
    17.5341  17.5341  17.7213  17.7213  19.0291  19.0291  19.1361  19.1361
    19.3881  19.3881  19.5943  19.5943  20.2963  20.2963  21.0498  21.0498
    22.1205  22.1205  22.3621  22.3621  23.3429  23.3429  24.2429  24.2429
    24.6828  24.6828  25.2607  25.2607  25.3416  25.3416  26.3811  26.3811
    26.6564  26.6564  27.0319  27.0319  27.4899  27.4899  27.5232  27.5232
    27.7257  27.7257  27.8805  27.8805  28.3979  28.3979  28.4106  28.4106
    29.2977  29.2977  29.6151  29.6151  29.7921  29.7921  30.5721  30.5721
    30.6846  30.6846  30.8437  30.8437  31.3668  31.3668  31.8784  31.8784
    31.9436  31.9436  32.5757  32.5757  34.0890  34.0890  34.1048  34.1048
    34.9101  34.9101  35.1009  35.1009  35.6759  35.6759  36.0273  36.0273
    36.1881  36.1881  36.5044  36.5044  37.2996  37.2996  38.3481  38.3481
    38.3675  38.3675  38.4136  38.4136  39.6379  39.6379  39.7958  39.7958
    40.1022  40.1022  40.1767  40.1767  41.6074  41.6074  41.6406  41.6406
    42.6906  42.6906  42.8388  42.8388  43.1293  43.1293  43.1543  43.1543
    43.6584  43.6584  43.8284  43.8284  43.8687  43.8687  44.2093  44.2093
    44.2792  44.2792  44.3876  44.3876  44.5238  44.5238  45.0117  45.0117
    45.5804  45.5804  45.7896  45.7896  46.0810  46.0810  46.2368  46.2368
    46.3796  46.3796  47.3568  47.3568  47.4310  47.4310  47.4507  47.4507
    48.1722  48.1722  48.5222  48.5222  48.6575  48.6575  48.7779  48.7779
    49.3748  49.3748  49.6509  49.6509  50.1688  50.1689  50.7415  50.7420

          k = 0.0000 0.3849 0.0000 (  8530 PWs)   bands (ev):

   -21.2241 -21.2241 -13.8974 -13.8974 -10.0494 -10.0494  -8.8778  -8.8778
     0.7277   0.7277   2.5909   2.5909   3.4548   3.4548   3.6336   3.6336
     4.4101   4.4101   4.7994   4.7994   6.3222   6.3222   7.0495   7.0495
     8.9910   8.9910  10.0269  10.0269  11.6697  11.6697  12.1831  12.1831
    12.3156  12.3156  12.9256  12.9256  14.2133  14.2133  14.6906  14.6906
    15.3578  15.3578  15.7699  15.7699  16.1923  16.1923  16.6677  16.6677
    17.6782  17.6782  18.3258  18.3258  18.4838  18.4838  19.6947  19.6947
    20.0727  20.0727  20.6467  20.6467  21.8959  21.8959  22.7839  22.7839
    24.0662  24.0662  24.0867  24.0867  24.3754  24.3754  24.9979  24.9979
    25.1973  25.1973  25.8863  25.8863  26.2086  26.2086  26.3668  26.3668
    26.3670  26.3670  26.7578  26.7578  27.0381  27.0381  27.2556  27.2556
    27.7573  27.7573  28.1305  28.1305  28.7068  28.7068  28.8277  28.8277
    29.7106  29.7106  29.7917  29.7917  30.6901  30.6901  31.2374  31.2374
    31.2796  31.2796  32.0588  32.0588  32.2823  32.2823  32.5265  32.5265
    33.0184  33.0184  33.8208  33.8208  34.5750  34.5750  34.7084  34.7084
    36.3065  36.3065  36.3933  36.3933  37.0865  37.0865  37.2463  37.2463
    37.3489  37.3489  38.3705  38.3705  38.4751  38.4751  38.8689  38.8689
    39.1110  39.1110  40.7587  40.7587  41.5652  41.5652  41.6281  41.6281
    42.1652  42.1652  42.5739  42.5739  42.6327  42.6327  43.2525  43.2525
    43.5272  43.5272  45.0633  45.0633  46.4825  46.4825  46.7006  46.7006
    46.7537  46.7537  47.4326  47.4326  47.5730  47.5730  47.9041  47.9041
    47.9656  47.9656  48.0325  48.0325  48.4012  48.4012  48.5775  48.5775
    48.6842  48.6842  48.9063  48.9063  49.3843  49.3843  49.5704  49.5704
    50.1361  50.1361  50.3577  50.3577  50.5580  50.5580  50.6835  50.6835
    51.6961  51.6961  51.8328  51.8328  52.8135  52.8136  52.8599  52.8599

          k = 0.0000 0.4811 0.0000 (  8520 PWs)   bands (ev):

   -19.8217 -19.8217 -16.0090 -16.0090 -10.5278 -10.5278  -7.4461  -7.4461
    -1.4193  -1.4193   3.3771   3.3771   4.6087   4.6087   5.4604   5.4604
     6.4536   6.4536   6.8169   6.8169   8.3401   8.3401   8.9796   8.9796
     9.6673   9.6673  10.5441  10.5441  10.9817  10.9817  11.7354  11.7354
    11.8461  11.8461  12.2940  12.2940  13.4702  13.4702  13.8455  13.8455
    14.2448  14.2448  14.7126  14.7126  15.3082  15.3082  15.5659  15.5659
    16.8529  16.8529  17.5114  17.5114  17.8127  17.8127  18.1285  18.1285
    18.7312  18.7312  20.2220  20.2220  21.0795  21.0795  21.8699  21.8699
    22.6038  22.6038  23.3324  23.3324  23.6247  23.6247  24.1786  24.1786
    24.7698  24.7698  25.1035  25.1035  25.1978  25.1978  25.6626  25.6626
    25.9193  25.9193  26.0124  26.0124  26.1402  26.1402  26.5683  26.5683
    27.3994  27.3994  27.5409  27.5409  27.8244  27.8244  28.4450  28.4450
    28.7562  28.7562  29.0257  29.0257  29.1397  29.1397  29.8994  29.8994
    30.6200  30.6200  31.1679  31.1679  31.8588  31.8588  32.3394  32.3394
    32.6590  32.6590  33.6793  33.6793  33.8190  33.8190  33.9954  33.9954
    34.4668  34.4668  34.7683  34.7683  35.3491  35.3491  36.4318  36.4318
    37.5993  37.5993  37.6914  37.6914  37.8148  37.8148  39.3961  39.3961
    40.0894  40.0894  40.5097  40.5097  41.1585  41.1585  41.2554  41.2554
    41.9644  41.9644  42.3930  42.3930  42.6896  42.6896  44.0741  44.0741
    45.3047  45.3047  45.5828  45.5828  46.1212  46.1212  46.9596  46.9596
    47.0370  47.0370  47.1331  47.1331  47.6803  47.6803  48.5649  48.5649
    49.4258  49.4258  50.9686  50.9686  51.1612  51.1612  51.1824  51.1824
    51.8484  51.8484  52.8015  52.8015  52.9915  52.9915  53.0095  53.0095
    53.1123  53.1123  53.2338  53.2338  53.3488  53.3488  53.6836  53.6836
    54.1047  54.1047  54.2128  54.2128  54.6326  54.6327  54.9168  54.9173

          k = 0.0000-0.5774 0.0000 (  8514 PWs)   bands (ev):

   -18.5442 -18.5442 -17.5308 -17.5308 -10.6921 -10.6921  -6.5965  -6.5965
    -2.5233  -2.5233   3.2995   3.2995   6.9222   6.9222   7.0687   7.0687
     7.7618   7.7618   7.9644   7.9644   8.9360   8.9360   8.9586   8.9586
     9.1575   9.1575   9.3561   9.3561  10.7561  10.7561  10.7986  10.7986
    11.0383  11.0383  11.6244  11.6244  13.2968  13.2968  13.3711  13.3711
    13.4375  13.4375  14.7214  14.7214  15.8393  15.8393  16.1968  16.1968
    16.4550  16.4550  16.5128  16.5128  17.5884  17.5884  18.4658  18.4658
    18.6055  18.6055  19.9091  19.9091  20.1730  20.1730  21.3569  21.3569
    22.9771  22.9771  23.0468  23.0468  23.2383  23.2383  23.9561  23.9561
    24.0318  24.0318  24.9683  24.9683  25.1135  25.1135  25.4211  25.4211
    25.6164  25.6164  25.6542  25.6542  26.0762  26.0762  26.3390  26.3390
    26.5859  26.5859  27.1347  27.1347  27.6529  27.6529  28.0527  28.0527
    28.5810  28.5810  28.7970  28.7970  29.5725  29.5725  30.1037  30.1037
    30.2925  30.2925  30.8648  30.8648  31.4872  31.4872  31.6246  31.6246
    31.9722  31.9722  32.1119  32.1119  33.6875  33.6875  33.8831  33.8831
    34.5256  34.5256  34.7390  34.7390  36.2075  36.2075  36.9233  36.9233
    36.9598  36.9598  37.2364  37.2364  37.3285  37.3285  37.7609  37.7609
    39.5745  39.5745  40.7406  40.7406  41.0460  41.0460  41.7317  41.7317
    42.0517  42.0517  43.4504  43.4504  43.6920  43.6920  44.2842  44.2842
    44.9159  44.9159  45.9935  45.9935  46.0082  46.0082  46.6042  46.6042
    46.9227  46.9227  47.1611  47.1611  48.8617  48.8617  50.4672  50.4672
    50.9518  50.9518  51.2003  51.2003  51.3559  51.3559  51.4196  51.4196
    51.6279  51.6279  52.0926  52.0926  52.9010  52.9010  53.2384  53.2384
    53.3071  53.3071  54.4172  54.4172  54.7855  54.7855  56.2167  56.2167
    56.8444  56.8444  57.3465  57.3466  57.3565  57.3565  57.4111  57.4112

          k = 0.0833 0.1443 0.0000 (  8609 PWs)   bands (ev):

   -23.3241 -23.3241 -11.3063 -11.3063  -8.9663  -8.9663  -8.3006  -8.3006
    -0.3000  -0.3000   0.5014   0.5014   1.4346   1.4346   1.8492   1.8492
     3.3704   3.3704   4.1525   4.1525   4.5906   4.5906   5.6849   5.6849
     5.8113   5.8113   6.0838   6.0838   7.2679   7.2679   9.4265   9.4265
     9.5104   9.5104  11.1283  11.1283  13.3481  13.3481  15.6106  15.6106
    17.8947  17.8947  19.2518  19.2518  19.7308  19.7308  21.4939  21.4939
    22.2201  22.2201  23.2204  23.2204  24.3204  24.3204  24.8402  24.8402
    25.5995  25.5995  25.7470  25.7470  25.8387  25.8387  26.2285  26.2285
    26.3397  26.3397  26.9278  26.9278  27.0566  27.0566  28.0965  28.0965
    28.2520  28.2520  28.3065  28.3065  29.2940  29.2940  29.3256  29.3256
    29.8027  29.8027  30.7131  30.7131  30.7859  30.7859  31.2271  31.2271
    32.4631  32.4631  32.5770  32.5770  32.7371  32.7371  32.7411  32.7411
    33.7939  33.7939  34.0413  34.0413  34.0982  34.0982  34.1679  34.1679
    34.2857  34.2857  34.5070  34.5070  34.6530  34.6530  35.2388  35.2388
    35.3868  35.3868  36.1509  36.1509  36.2666  36.2666  36.3268  36.3268
    36.3660  36.3660  36.8177  36.8177  37.1599  37.1599  37.7929  37.7929
    37.8785  37.8785  37.8852  37.8852  37.9593  37.9593  38.7756  38.7756
    38.9254  38.9254  39.9783  39.9783  40.0631  40.0631  40.1797  40.1797
    40.8333  40.8333  41.4390  41.4390  41.5106  41.5106  41.6900  41.6900
    41.9420  41.9420  42.0962  42.0962  42.2887  42.2887  42.3552  42.3552
    42.5190  42.5190  42.7937  42.7937  43.0589  43.0589  43.1231  43.1231
    43.2989  43.2989  43.4649  43.4649  43.8389  43.8389  44.0819  44.0819
    44.4080  44.4080  44.5773  44.5773  45.0851  45.0851  45.2176  45.2176
    45.5870  45.5870  45.8910  45.8910  46.1582  46.1582  46.2230  46.2230
    46.6487  46.6487  46.8333  46.8333  47.3970  47.3972  47.4183  47.4184

          k = 0.0833 0.2406 0.0000 (  8564 PWs)   bands (ev):

   -22.6716 -22.6716 -10.6847 -10.6847 -10.5330 -10.5330  -9.3084  -9.3084
     0.5947   0.5947   1.4035   1.4035   2.3471   2.3471   2.7525   2.7525
     3.9295   3.9295   4.2561   4.2561   4.7640   4.7640   5.0474   5.0474
     6.9789   6.9789   7.3551   7.3551   8.1317   8.1317  10.3210  10.3210
    11.0929  11.0929  11.9039  11.9039  14.2321  14.2321  15.6194  15.6194
    17.5850  17.5850  18.7180  18.7180  19.5624  19.5624  20.3035  20.3035
    21.1499  21.1499  21.4260  21.4260  21.8670  21.8670  21.9891  21.9891
    23.0110  23.0110  23.0323  23.0323  23.8174  23.8174  23.8681  23.8681
    24.1984  24.1984  24.5605  24.5605  25.0933  25.0933  25.1476  25.1476
    26.2758  26.2758  26.5542  26.5542  26.7201  26.7201  27.6011  27.6011
    28.5156  28.5156  28.9426  28.9426  29.3109  29.3109  29.6699  29.6699
    30.1762  30.1762  30.8118  30.8118  31.1861  31.1861  31.7814  31.7814
    32.2668  32.2668  32.3069  32.3069  32.7709  32.7709  33.2132  33.2132
    33.4977  33.4977  34.3778  34.3778  34.5087  34.5087  35.0476  35.0476
    35.6172  35.6172  35.9035  35.9035  36.1765  36.1765  36.6790  36.6790
    36.8872  36.8872  37.2774  37.2774  37.2968  37.2968  37.7262  37.7262
    37.9045  37.9045  38.3178  38.3178  38.9502  38.9502  39.3419  39.3419
    39.6275  39.6275  39.6766  39.6766  39.9906  39.9906  40.5459  40.5459
    41.1016  41.1016  41.1248  41.1248  41.4110  41.4110  41.7471  41.7471
    42.2164  42.2164  43.0954  43.0954  43.1919  43.1919  43.5075  43.5075
    44.0910  44.0910  44.2515  44.2515  44.6355  44.6355  45.1889  45.1889
    45.3724  45.3724  45.4963  45.4963  45.9279  45.9279  46.0288  46.0288
    46.2697  46.2697  46.7546  46.7546  47.0284  47.0284  47.7286  47.7286
    47.7921  47.7921  48.3634  48.3634  48.4395  48.4395  48.6443  48.6443
    49.0045  49.0045  49.0374  49.0374  49.3389  49.3389  49.6612  49.6619

          k = 0.0833 0.3368 0.0000 (  8542 PWs)   bands (ev):

   -21.7033 -21.7033 -12.7686 -12.7686 -10.2034 -10.2034  -9.4096  -9.4096
     1.7442   1.7442   1.9322   1.9322   2.7772   2.7772   3.7115   3.7115
     4.1154   4.1154   4.4952   4.4952   5.6519   5.6519   6.3739   6.3739
     8.3202   8.3202   9.3787   9.3787   9.4828   9.4828  11.6531  11.6531
    12.6583  12.6583  12.8477  12.8477  14.5181  14.5181  15.5266  15.5266
    16.2340  16.2340  16.8149  16.8149  17.6163  17.6163  17.8739  17.8739
    18.5100  18.5100  19.4399  19.4399  19.7387  19.7387  19.9842  19.9842
    20.9771  20.9771  21.4244  21.4244  21.9955  21.9955  22.5002  22.5002
    22.9149  22.9149  23.2365  23.2365  23.5728  23.5728  23.7587  23.7587
    24.7554  24.7554  24.9790  24.9790  25.5053  25.5053  25.9625  25.9625
    26.1295  26.1295  27.5336  27.5336  27.5892  27.5892  28.9888  28.9888
    29.2931  29.2931  29.6608  29.6608  29.7391  29.7391  30.4612  30.4612
    30.9209  30.9209  31.3172  31.3172  31.3263  31.3263  31.7415  31.7415
    32.3193  32.3193  33.1172  33.1172  33.2173  33.2173  33.9459  33.9459
    34.0407  34.0407  34.3962  34.3962  34.7982  34.7982  35.8062  35.8062
    36.6339  36.6339  37.2333  37.2333  37.7561  37.7561  38.0302  38.0302
    38.1881  38.1881  38.9838  38.9838  39.0583  39.0583  39.5712  39.5712
    39.7763  39.7763  40.1519  40.1519  40.2457  40.2457  41.7315  41.7315
    41.7321  41.7321  42.1648  42.1648  42.5873  42.5873  43.0779  43.0779
    43.2011  43.2011  43.3651  43.3651  44.1701  44.1701  44.3032  44.3032
    45.0104  45.0104  45.3397  45.3397  45.4853  45.4853  45.5053  45.5053
    46.6761  46.6761  46.8902  46.8902  47.0048  47.0048  47.5836  47.5836
    47.7221  47.7221  48.7475  48.7475  49.0459  49.0459  49.9431  49.9431
    50.0095  50.0095  50.0740  50.0740  50.5507  50.5507  50.8566  50.8566
    50.9857  50.9857  51.5789  51.5789  51.9477  51.9477  52.1985  52.1988

          k = 0.0833 0.4330 0.0000 (  8522 PWs)   bands (ev):

   -20.4377 -20.4377 -14.9026 -14.9026 -10.8447 -10.8447  -8.0210  -8.0210
    -0.4670  -0.4670   3.6891   3.6891   4.2319   4.2319   4.5538   4.5538
     5.5451   5.5451   5.9079   5.9079   7.4441   7.4441   8.0947   8.0947
    10.0899  10.0899  10.6425  10.6425  10.6750  10.6750  12.0462  12.0462
    12.8889  12.8889  13.4098  13.4098  13.4733  13.4733  13.8500  13.8500
    14.4884  14.4884  15.1937  15.1937  15.7184  15.7184  16.6535  16.6535
    16.9044  16.9044  17.2182  17.2182  18.8353  18.8353  19.0437  19.0437
    19.7172  19.7172  20.1614  20.1614  21.1403  21.1403  21.4610  21.4610
    21.6685  21.6685  22.0561  22.0561  22.1079  22.1079  22.8446  22.8446
    23.6134  23.6134  24.0480  24.0480  24.2312  24.2312  25.0977  25.0977
    26.0495  26.0495  26.0969  26.0969  26.6148  26.6148  27.6918  27.6918
    27.8222  27.8222  28.4144  28.4144  29.0177  29.0177  29.7233  29.7233
    29.9472  29.9472  30.3877  30.3877  30.6306  30.6306  30.8570  30.8570
    31.7253  31.7253  31.9620  31.9620  32.1090  32.1090  33.3593  33.3593
    33.4826  33.4826  33.8233  33.8233  34.4538  34.4538  34.7519  34.7519
    35.5679  35.5679  35.9839  35.9839  36.3562  36.3562  36.8876  36.8876
    37.4197  37.4197  38.4776  38.4776  38.5736  38.5736  39.4286  39.4286
    40.1619  40.1619  40.3936  40.3936  41.3651  41.3651  41.6199  41.6199
    42.3392  42.3392  42.4241  42.4241  42.7800  42.7800  43.8124  43.8124
    44.4181  44.4181  45.3123  45.3123  45.5595  45.5595  46.4470  46.4470
    46.7250  46.7250  46.9864  46.9864  47.1614  47.1614  47.7169  47.7169
    48.0083  48.0083  48.3052  48.3052  48.7429  48.7429  48.9790  48.9790
    49.3050  49.3050  50.0084  50.0084  50.1274  50.1274  51.0268  51.0268
    51.4266  51.4266  51.7996  51.7996  52.5600  52.5600  52.8322  52.8322
    53.0945  53.0945  54.2704  54.2704  54.3769  54.3770  54.8902  54.8903

          k = 0.0833 0.5292 0.0000 (  8522 PWs)   bands (ev):

   -18.9489 -18.9489 -16.8564 -16.8564 -11.1765 -11.1765  -6.7036  -6.7036
    -2.2459  -2.2459   4.0386   4.0386   5.9108   5.9108   6.7333   6.7333
     7.8126   7.8126   8.0869   8.0869   8.4451   8.4451   9.1788   9.1788
     9.6719   9.6719  10.1620  10.1620  10.5093  10.5093  10.8085  10.8085
    12.1112  12.1112  12.1931  12.1931  12.2970  12.2970  13.3836  13.3836
    14.2806  14.2806  14.6065  14.6065  15.2773  15.2773  15.7227  15.7227
    16.6263  16.6263  17.5568  17.5568  17.6910  17.6910  18.7034  18.7034
    19.3716  19.3716  19.6848  19.6848  19.7699  19.7699  21.0349  21.0349
    21.1892  21.1892  21.4911  21.4911  21.7650  21.7650  22.3865  22.3865
    23.0765  23.0765  23.1838  23.1838  23.5577  23.5577  24.6221  24.6221
    25.0366  25.0366  25.6450  25.6450  26.1163  26.1163  27.4706  27.4706
    27.5065  27.5065  27.8220  27.8220  28.3956  28.3956  29.2019  29.2019
    29.3998  29.3998  29.8727  29.8727  30.0949  30.0949  30.2491  30.2491
    31.0425  31.0425  31.5702  31.5702  31.9328  31.9328  32.4689  32.4689
    32.9690  32.9690  33.1666  33.1666  34.0774  34.0774  34.2201  34.2201
    34.9651  34.9651  35.4443  35.4443  36.0566  36.0566  36.7314  36.7314
    37.5476  37.5476  37.8727  37.8727  38.1538  38.1538  38.8368  38.8368
    39.7612  39.7612  40.2959  40.2959  41.5360  41.5360  41.6883  41.6883
    42.7198  42.7198  43.3308  43.3308  43.5062  43.5062  44.6429  44.6429
    44.8984  44.8984  44.9041  44.9041  45.5972  45.5972  46.2828  46.2828
    46.8616  46.8616  48.7578  48.7578  48.9994  48.9994  49.7442  49.7442
    50.0102  50.0102  50.3912  50.3912  50.6175  50.6175  51.2171  51.2171
    51.4230  51.4230  51.8031  51.8031  51.9994  51.9994  52.7625  52.7625
    52.8211  52.8211  53.2829  53.2829  53.2911  53.2911  54.2458  54.2458
    54.5610  54.5610  54.9603  54.9603  55.1585  55.1585  56.1606  56.1607

          k = 0.1667 0.2887 0.0000 (  8555 PWs)   bands (ev):

   -21.8641 -21.8641 -12.0204 -12.0204 -10.6813 -10.6813  -9.5896  -9.5896
     1.7114   1.7114   2.2044   2.2044   2.5252   2.5252   3.4879   3.4879
     3.8785   3.8785   5.3841   5.3841   5.9626   5.9626   6.1382   6.1382
     7.4675   7.4675   8.1076   8.1076   9.1380   9.1380  11.4321  11.4321
    12.3701  12.3701  13.2720  13.2720  14.3581  14.3581  15.3171  15.3171
    18.0177  18.0177  18.0950  18.0950  18.5119  18.5119  18.5259  18.5259
    19.5572  19.5572  19.7154  19.7154  20.0272  20.0272  20.1068  20.1068
    20.1200  20.1200  20.8976  20.8976  21.5873  21.5873  22.0025  22.0025
    22.0359  22.0359  22.9076  22.9076  23.1640  23.1640  23.7317  23.7317
    24.3891  24.3891  24.6871  24.6871  24.9367  24.9367  25.7183  25.7183
    26.6567  26.6567  27.1461  27.1461  27.7875  27.7875  27.9766  27.9766
    28.2952  28.2952  29.9794  29.9794  30.4843  30.4843  31.3445  31.3445
    31.4102  31.4102  31.7969  31.7969  32.0072  32.0072  34.2624  34.2624
    34.3170  34.3170  34.4859  34.4859  35.2190  35.2190  35.9119  35.9119
    35.9478  35.9478  36.2172  36.2172  36.3504  36.3504  36.6398  36.6398
    36.8435  36.8435  36.9198  36.9198  37.0115  37.0115  37.6366  37.6366
    37.6441  37.6441  38.2058  38.2058  38.6020  38.6020  38.6463  38.6463
    39.8175  39.8175  39.8628  39.8628  40.1646  40.1646  40.4211  40.4211
    41.0889  41.0889  41.1097  41.1097  41.6591  41.6591  41.7616  41.7616
    42.1264  42.1264  42.6296  42.6296  42.8892  42.8892  43.6868  43.6868
    44.1201  44.1201  44.4421  44.4421  44.9133  44.9133  46.2698  46.2698
    46.3817  46.3817  46.7425  46.7425  47.4537  47.4537  47.5205  47.5205
    47.7300  47.7300  47.7457  47.7457  47.8768  47.8768  48.4974  48.4974
    48.6600  48.6600  50.8321  50.8321  51.2227  51.2227  51.4073  51.4073
    51.5300  51.5300  52.4785  52.4786  52.5435  52.5437  52.6928  52.6934

          k = 0.1667 0.3849 0.0000 (  8549 PWs)   bands (ev):

   -20.7519 -20.7519 -13.7566 -13.7566 -11.7450 -11.7450  -8.3282  -8.3282
     0.2459   0.2459   3.2658   3.2658   4.0752   4.0752   5.0809   5.0809
     5.4339   5.4339   6.1449   6.1449   7.0045   7.0045   7.5975   7.5975
     8.8990   8.8990   9.6702   9.6702  10.0931  10.0931  11.9217  11.9217
    12.9605  12.9605  14.1053  14.1053  14.8672  14.8672  15.5347  15.5347
    15.7247  15.7247  16.4226  16.4226  16.5699  16.5699  16.7994  16.7994
    17.3957  17.3957  17.9432  17.9432  18.3190  18.3190  18.7710  18.7710
    18.9382  18.9382  19.2234  19.2234  20.0467  20.0467  20.4015  20.4015
    20.9362  20.9362  21.1754  21.1754  21.1849  21.1849  22.4475  22.4475
    22.8910  22.8910  23.7597  23.7597  23.8941  23.8941  24.5781  24.5781
    24.9342  24.9342  25.8008  25.8008  26.8040  26.8040  27.2856  27.2856
    27.3736  27.3736  28.2772  28.2772  29.0052  29.0052  29.9763  29.9763
    30.7156  30.7156  31.9368  31.9368  32.2315  32.2315  32.5950  32.5950
    32.9379  32.9379  33.3795  33.3795  34.3886  34.3886  34.7906  34.7906
    35.1242  35.1242  35.5592  35.5592  35.9864  35.9864  36.6503  36.6503
    36.9554  36.9554  37.4054  37.4054  37.8691  37.8691  38.3281  38.3281
    38.8344  38.8344  38.9124  38.9124  39.5408  39.5408  39.8245  39.8245
    40.4544  40.4544  40.4577  40.4577  40.6671  40.6671  40.7916  40.7916
    41.3011  41.3011  41.7945  41.7945  41.8079  41.8079  42.7851  42.7851
    43.2197  43.2197  43.4468  43.4468  43.9911  43.9911  44.3347  44.3347
    44.5334  44.5334  45.6075  45.6075  45.7979  45.7979  46.2532  46.2532
    46.8730  46.8730  47.3194  47.3194  47.5181  47.5181  47.8271  47.8271
    48.0125  48.0125  48.8800  48.8800  50.0699  50.0699  50.5805  50.5805
    51.0330  51.0330  51.3628  51.3628  51.6706  51.6706  51.8119  51.8119
    52.5632  52.5632  53.1072  53.1072  53.8287  53.8287  53.9975  53.9975

          k = 0.1667 0.4811 0.0000 (  8539 PWs)   bands (ev):

   -19.3695 -19.3695 -15.6784 -15.6784 -12.3246 -12.3246  -6.8921  -6.8921
    -1.6780  -1.6780   5.2324   5.2324   5.9551   5.9551   5.9799   5.9799
     7.1332   7.1332   7.3420   7.3420   8.9155   8.9155   8.9935   8.9935
     9.7097   9.7097  10.3683  10.3683  11.5976  11.5976  11.9941  11.9941
    12.1190  12.1190  12.9699  12.9699  13.0434  13.0434  13.6714  13.6714
    14.6684  14.6684  14.9517  14.9517  15.4851  15.4851  16.3937  16.3937
    16.8116  16.8116  17.0486  17.0486  17.5313  17.5313  18.1097  18.1097
    18.3058  18.3058  18.4569  18.4569  18.7495  18.7495  19.1693  19.1693
    20.0409  20.0409  20.6630  20.6630  20.7256  20.7256  21.4966  21.4966
    21.7104  21.7104  22.3619  22.3619  22.8693  22.8693  24.1379  24.1379
    24.2952  24.2952  24.9737  24.9737  25.3115  25.3115  26.2014  26.2014
    26.7224  26.7224  28.3361  28.3361  28.9191  28.9191  29.0740  29.0740
    29.3820  29.3820  30.0511  30.0511  31.9174  31.9174  32.4252  32.4252
    32.7098  32.7098  34.0639  34.0639  34.2125  34.2125  34.4709  34.4709
    34.5662  34.5662  34.7862  34.7862  35.2938  35.2938  35.3359  35.3359
    36.1893  36.1893  36.2479  36.2479  37.6499  37.6499  37.7346  37.7346
    38.6737  38.6737  39.4795  39.4795  39.4942  39.4942  39.9785  39.9785
    40.7034  40.7034  40.8320  40.8320  41.5998  41.5998  41.6740  41.6740
    42.4543  42.4543  42.8392  42.8392  43.9766  43.9766  44.7052  44.7052
    44.7994  44.7994  45.3771  45.3771  45.6392  45.6392  45.7227  45.7227
    46.2861  46.2861  46.6297  46.6297  46.6611  46.6611  47.6272  47.6272
    47.8546  47.8546  47.9807  47.9807  48.6803  48.6803  49.1640  49.1640
    49.7309  49.7309  49.8167  49.8167  50.3168  50.3168  50.9680  50.9680
    51.2818  51.2818  52.6264  52.6264  52.6326  52.6326  52.9974  52.9974
    53.7532  53.7532  54.3954  54.3954  54.6171  54.6172  55.0488  55.0488

          k = 0.1667 0.5774 0.0000 (  8510 PWs)   bands (ev):

   -18.1226 -18.1226 -17.1274 -17.1274 -12.5106 -12.5106  -5.9939  -5.9939
    -2.7525  -2.7525   5.8493   5.8493   7.4292   7.4292   7.4876   7.4876
     7.6790   7.6790   8.6456   8.6456   9.4316   9.4316   9.5846   9.5846
     9.6241   9.6241  10.0401  10.0401  10.8533  10.8533  11.2819  11.2819
    11.4159  11.4159  12.3032  12.3032  13.0918  13.0918  13.2934  13.2934
    13.8918  13.8918  14.9749  14.9749  15.3924  15.3924  15.8416  15.8416
    16.1893  16.1893  16.7902  16.7902  17.2776  17.2776  17.6573  17.6573
    17.9821  17.9821  18.3421  18.3421  19.2645  19.2645  19.3626  19.3626
    19.5627  19.5627  19.7067  19.7067  20.0027  20.0027  21.1745  21.1745
    21.8894  21.8894  22.2849  22.2849  22.8080  22.8080  22.8841  22.8841
    23.8748  23.8748  24.8466  24.8466  25.8466  25.8466  26.1930  26.1930
    26.2641  26.2641  26.7095  26.7095  28.2911  28.2911  29.1609  29.1609
    29.6980  29.6980  30.9058  30.9058  31.5000  31.5000  31.7393  31.7393
    32.1841  32.1841  32.7521  32.7521  33.8778  33.8778  34.1142  34.1142
    34.5993  34.5993  34.8885  34.8885  35.0735  35.0735  35.9090  35.9090
    36.5766  36.5766  36.8517  36.8517  37.5674  37.5674  37.8312  37.8312
    38.2269  38.2269  38.3976  38.3976  39.4532  39.4532  39.8216  39.8216
    39.8796  39.8796  40.6439  40.6439  42.2554  42.2554  42.4239  42.4239
    43.7269  43.7269  43.9157  43.9157  44.2404  44.2404  44.4281  44.4281
    44.9187  44.9187  45.2124  45.2124  45.6415  45.6415  45.7529  45.7529
    46.3466  46.3466  49.0077  49.0077  49.0275  49.0275  49.5756  49.5756
    50.0946  50.0946  50.4662  50.4662  50.5391  50.5391  50.7547  50.7547
    50.9979  50.9979  51.1920  51.1920  51.3624  51.3624  51.6147  51.6147
    51.8785  51.8785  51.8807  51.8807  51.9237  51.9237  52.5569  52.5569
    52.9028  52.9028  53.0907  53.0908  53.3831  53.3831  54.1252  54.1272

          k = 0.2500 0.4330 0.0000 (  8547 PWs)   bands (ev):

   -19.5183 -19.5183 -14.7933 -14.7933 -13.2399 -13.2399  -6.9765  -6.9765
    -1.3789  -1.3789   5.0209   5.0209   5.6937   5.6937   6.8971   6.8971
     7.0633   7.0633   8.1244   8.1244   8.5408   8.5408   8.5643   8.5643
     8.8109   8.8109  10.2132  10.2132  11.4060  11.4060  12.9285  12.9285
    13.5434  13.5434  13.7614  13.7614  14.0437  14.0437  14.6307  14.6307
    14.6852  14.6852  15.2108  15.2108  15.2989  15.2989  15.4820  15.4820
    15.9015  15.9015  16.9074  16.9074  16.9872  16.9872  17.1336  17.1336
    17.6636  17.6636  18.1393  18.1393  18.6098  18.6098  18.6487  18.6487
    19.6856  19.6856  20.1802  20.1802  20.6099  20.6099  20.9438  20.9438
    21.0463  21.0463  22.2731  22.2731  23.2679  23.2679  23.2826  23.2826
    24.1477  24.1477  24.1762  24.1762  25.6029  25.6029  26.9747  26.9747
    27.0884  27.0884  27.3074  27.3074  27.9029  27.9029  28.9916  28.9916
    30.6436  30.6436  31.1127  31.1127  31.2860  31.2860  31.5258  31.5258
    31.8143  31.8143  34.0407  34.0407  34.9586  34.9586  35.5700  35.5700
    36.2130  36.2130  36.3595  36.3595  36.8130  36.8130  37.6710  37.6710
    37.7164  37.7164  39.1504  39.1504  39.1990  39.1990  39.7119  39.7119
    39.8042  39.8042  39.9558  39.9558  40.3117  40.3117  40.7167  40.7167
    40.9668  40.9668  40.9713  40.9713  41.5410  41.5410  41.8304  41.8304
    42.2256  42.2256  42.2722  42.2722  42.7558  42.7558  43.2062  43.2062
    43.2529  43.2529  43.2940  43.2940  43.6059  43.6059  44.8812  44.8812
    44.9100  44.9100  45.6377  45.6377  45.8173  45.8173  46.9079  46.9079
    47.8385  47.8385  47.9735  47.9735  48.1235  48.1235  48.9482  48.9482
    49.2556  49.2556  50.1985  50.1985  50.2040  50.2040  50.2255  50.2255
    50.3765  50.3765  50.9165  50.9165  51.6899  51.6899  51.9064  51.9064
    52.8848  52.8848  54.2257  54.2257  54.7465  54.7465  55.2631  55.2632

          k = 0.2500 0.5292 0.0000 (  8533 PWs)   bands (ev):

   -18.0877 -18.0877 -16.2239 -16.2239 -13.9509 -13.9509  -5.5817  -5.5817
    -2.9090  -2.9090   6.7036   6.7036   7.1252   7.1252   8.1103   8.1103
     8.6506   8.6506   9.0675   9.0675   9.2207   9.2207   9.8139   9.8139
    10.9096  10.9096  11.1935  11.1935  11.5265  11.5265  12.0455  12.0455
    12.4578  12.4578  12.5837  12.5837  13.2108  13.2108  13.4707  13.4707
    13.9009  13.9009  14.2675  14.2675  14.6888  14.6888  14.8174  14.8174
    14.9973  14.9973  15.7943  15.7943  15.9038  15.9038  16.7279  16.7279
    16.9789  16.9789  17.3736  17.3736  18.1084  18.1084  18.3184  18.3184
    19.2747  19.2747  19.4138  19.4138  19.9623  19.9623  20.5386  20.5386
    20.6760  20.6760  21.6065  21.6065  22.0503  22.0503  22.8485  22.8485
    23.5498  23.5498  24.1109  24.1109  24.8043  24.8043  25.9250  25.9250
    26.5597  26.5597  26.7224  26.7224  28.0916  28.0916  28.5745  28.5745
    29.7006  29.7006  30.6547  30.6547  31.0100  31.0100  31.3149  31.3149
    32.5400  32.5400  33.7739  33.7739  34.6047  34.6047  34.8861  34.8861
    35.9980  35.9980  37.1390  37.1390  37.2240  37.2240  37.3112  37.3112
    38.7235  38.7235  38.9169  38.9169  39.1217  39.1217  39.5768  39.5768
    39.7801  39.7801  40.5991  40.5991  40.6622  40.6622  41.5700  41.5700
    42.0340  42.0340  42.3954  42.3954  42.6853  42.6853  42.7044  42.7044
    43.4181  43.4181  43.8607  43.8607  44.3388  44.3388  44.4635  44.4635
    44.5616  44.5616  45.2169  45.2169  45.4034  45.4034  45.9351  45.9351
    46.4227  46.4227  46.8203  46.8203  47.1543  47.1543  47.6121  47.6121
    48.0034  48.0034  48.4311  48.4311  49.0007  49.0007  49.2964  49.2964
    49.8915  49.8915  49.9972  49.9972  50.0202  50.0202  50.4609  50.4609
    50.7054  50.7054  51.0732  51.0732  51.4187  51.4188  51.7016  51.7016
    51.7098  51.7098  52.5302  52.5302  52.8683  52.8683  53.0967  53.0967

          k = 0.3333 0.5774 0.0000 (  8526 PWs)   bands (ev):

   -16.8641 -16.8641 -16.8619 -16.8619 -14.8594 -14.8594  -4.2163  -4.2163
    -4.2163  -4.2163   6.4528   6.4528   8.7313   8.7313   8.7353   8.7353
     9.3165   9.3165  10.6831  10.6831  10.6831  10.6831  11.1987  11.1987
    11.2010  11.2010  11.3203  11.3203  11.5328  11.5328  12.0885  12.0885
    12.0885  12.0885  12.1860  12.1860  12.1879  12.1879  12.7750  12.7750
    12.9504  12.9504  14.0024  14.0024  14.0031  14.0031  14.3314  14.3314
    14.3314  14.3314  14.8875  14.8875  15.2937  15.2937  16.5653  16.5653
    16.5655  16.5655  17.3066  17.3066  17.3891  17.3891  17.3891  17.3891
    18.6690  18.6690  19.8210  19.8210  19.8210  19.8210  20.3800  20.3800
    20.6699  20.6699  21.2068  21.2068  21.2068  21.2068  22.8116  22.8116
    23.6819  23.6819  23.6819  23.6819  24.1366  24.1366  25.6948  25.6948
    25.6948  25.6948  27.6705  27.6705  28.1829  28.1829  28.1829  28.1829
    28.5991  28.5991  30.5569  30.5569  30.5569  30.5569  33.1718  33.1718
    33.4064  33.4064  33.4064  33.4064  33.8285  33.8285  34.6053  34.6053
    34.6053  34.6053  37.1477  37.1477  38.7154  38.7154  38.7154  38.7154
    39.1494  39.1494  39.1507  39.1507  39.7752  39.7752  40.0397  40.0397
    40.9311  40.9311  40.9346  40.9346  42.8124  42.8124  43.7720  43.7720
    43.7720  43.7720  44.1320  44.1320  44.1329  44.1329  44.3065  44.3065
    44.7957  44.7957  44.7957  44.7957  44.8009  44.8009  45.1904  45.1904
    45.1908  45.1908  45.6395  45.6395  45.8362  45.8362  45.8362  45.8362
    46.3318  46.3318  46.4799  46.4799  46.4800  46.4800  46.9239  46.9239
    47.1374  47.1374  47.3624  47.3624  47.3629  47.3629  47.9101  47.9101
    47.9101  47.9101  48.2406  48.2406  49.3584  49.3584  49.6408  49.6408
    49.6408  49.6408  50.6506  50.6506  50.6506  50.6506  51.4733  51.4733
    52.3448  52.3448  52.4851  52.4852  52.4852  52.4854  52.6673  52.6673

     the Fermi energy is    -4.2161 ev

!    total energy              =     -24.09438099 Ry
     estimated scf accuracy    <          6.9E-09 Ry
     smearing contrib. (-TS)   =      -0.00000091 Ry
     internal energy E=F+TS    =     -24.09438008 Ry

     The total energy is F=E-TS. E is the sum of the following terms:
     one-electron contribution =    -359.31851318 Ry
     hartree contribution      =     180.41747029 Ry
     xc contribution           =      -8.58970079 Ry
     ewald contribution        =     163.39636361 Ry

     convergence has been achieved in   7 iterations

     Writing all to output data dir ./outdir/graphene.save/

     init_run     :    136.35s CPU     25.64s WALL (       1 calls)
     electrons    :   3137.32s CPU    510.28s WALL (       1 calls)

     Called by init_run:
     wfcinit      :    132.75s CPU     24.33s WALL (       1 calls)
     potinit      :      1.58s CPU      0.45s WALL (       1 calls)
     hinit0       :      1.93s CPU      0.77s WALL (       1 calls)

     Called by electrons:
     c_bands      :   2615.42s CPU    422.44s WALL (       7 calls)
     sum_band     :    516.15s CPU     86.77s WALL (       7 calls)
     v_of_rho     :      3.45s CPU      0.59s WALL (       8 calls)
     mix_rho      :      1.14s CPU      0.29s WALL (       7 calls)

     Called by c_bands:
     init_us_2    :      1.71s CPU      0.35s WALL (     285 calls)
     init_us_2:cp :      1.71s CPU      0.35s WALL (     285 calls)
     cegterg      :   2605.89s CPU    420.17s WALL (     133 calls)

     Called by *egterg:
     cdiaghg      :     93.01s CPU     21.32s WALL (     658 calls)
     h_psi        :   2231.53s CPU    357.37s WALL (     677 calls)
     g_psi        :      6.60s CPU      0.94s WALL (     525 calls)

     Called by h_psi:
     h_psi:calbec :     23.12s CPU      2.19s WALL (     677 calls)
     vloc_psi     :   2168.16s CPU    350.69s WALL (     677 calls)
     add_vuspsi   :     23.58s CPU      2.14s WALL (     677 calls)

     General routines
     calbec       :     23.08s CPU      2.19s WALL (     677 calls)
     fft          :      3.24s CPU      0.89s WALL (     157 calls)
     ffts         :      0.91s CPU      0.34s WALL (      60 calls)
     fftw         :   1855.64s CPU    303.05s WALL (  338656 calls)
     interpolate  :      1.55s CPU      0.44s WALL (      32 calls)

     Parallel routines

     PWSCF        :  54m35.00s CPU   8m56.64s WALL


   This run was terminated on:  22:37:38  24Aug2022            

=------------------------------------------------------------------------------=
   JOB DONE.
=------------------------------------------------------------------------------=
