
     Program PWSCF v.7.0 starts on 24Aug2022 at 19:42:33 
        Git branch: HEAD
        Last git commit: bcbb9787c58f17a467653707917172ffc4053dd9-dirty
        Last git commit date: Tue Dec 21 10:27:04 2021 +0000
        Last git commit subject: Merge branch pw2gt_cmplx into develop         

     This program is part of the open-source Quantum ESPRESSO suite
     for quantum simulation of materials; please cite
         "P. Giannozzi et al., J. Phys.:Condens. Matter 21 395502 (2009);
         "P. Giannozzi et al., J. Phys.:Condens. Matter 29 465901 (2017);
         "P. Giannozzi et al., J. Chem. Phys. 152 154105 (2020);
          URL http://www.quantum-espresso.org", 
     in publications or presentations arising from this work. More details at
     http://www.quantum-espresso.org/quote

     Parallel version (MPI & OpenMP), running on       6 processor cores
     Number of MPI processes:                 1
     Threads/MPI process:                     6

     MPI processes distributed on     1 nodes
     9400 MiB available memory on the printing compute node when the environment starts

     Reading input from nscf.in

     Current dimensions of program PWSCF are:
     Max number of different atomic species (ntypx) = 10
     Max number of k-points (npk) =  40000
     Max angular momentum in pseudopotentials (lmaxx) =  4

     Subspace diagonalization in iterative solution of the eigenvalue problem:
     a serial algorithm will be used


     G-vector sticks info
     --------------------
     sticks:   dense  smooth     PW     G-vecs:    dense   smooth      PW
     Sum        2053     967    283               363965   120829   18561

     Using Slab Decomposition



     bravais-lattice index     =            4
     lattice parameter (alat)  =       7.6723  a.u.
     unit-cell volume          =    1926.6783 (a.u.)^3
     number of atoms/cell      =            2
     number of atomic types    =            1
     number of electrons       =        28.00
     number of Kohn-Sham states=          100
     kinetic-energy cutoff     =      60.0000  Ry
     charge density cutoff     =     500.0000  Ry
     scf convergence threshold =      1.0E-08
     mixing beta               =       0.7000
     number of iterations used =            8  plain     mixing
     Exchange-correlation= PBE
                           (   1   4   3   4   0   0   0)
     Non magnetic calculation with spin-orbit


     celldm(1)=   7.672288  celldm(2)=   0.000000  celldm(3)=   4.926108
     celldm(4)=   0.000000  celldm(5)=   0.000000  celldm(6)=   0.000000

     crystal axes: (cart. coord. in units of alat)
               a(1) = (   1.000000   0.000000   0.000000 )  
               a(2) = (  -0.500000   0.866025   0.000000 )  
               a(3) = (   0.000000   0.000000   4.926108 )  

     reciprocal axes: (cart. coord. in units 2 pi/alat)
               b(1) = (  1.000000  0.577350 -0.000000 )  
               b(2) = (  0.000000  1.154701  0.000000 )  
               b(3) = (  0.000000 -0.000000  0.203000 )  


     PseudoPot. # 1 for Ge read from file:
     ../../pseudos/ONCVPSP/abinit/Ge_ONCV_PBE_fr.upf
     MD5 check sum: 3865ee7dd5ea47d44456334f1e599122
     Pseudo is Norm-conserving + core correction, Zval = 14.0
     Generated using ONCVPSP code by D. R. Hamann
     Using radial grid of 1578 points, 10 beta functions with: 
                l(1) =   0
                l(2) =   0
                l(3) =   1
                l(4) =   1
                l(5) =   1
                l(6) =   1
                l(7) =   2
                l(8) =   2
                l(9) =   2
               l(10) =   2

     atomic species   valence    mass     pseudopotential
        Ge            14.00    72.63000     Ge( 1.00)

     12 Sym. Ops., with inversion, found



   Cartesian axes

     site n.     atom                  positions (alat units)
         1           Ge  tau(   1) = (  -0.0000000   0.5773503  -0.0848530  )
         2           Ge  tau(   2) = (   0.5000000   0.2886751   0.0848530  )

     number of k points=    61
                       cart. coord. in units 2pi/alat
        k(    1) = (   0.0000000   0.0000000   0.0000000), wk =   0.0163934
        k(    2) = (   0.0111111   0.0192450   0.0000000), wk =   0.0163934
        k(    3) = (   0.0222222   0.0384900   0.0000000), wk =   0.0163934
        k(    4) = (   0.0333333   0.0577350   0.0000000), wk =   0.0163934
        k(    5) = (   0.0444444   0.0769800   0.0000000), wk =   0.0163934
        k(    6) = (   0.0555556   0.0962250   0.0000000), wk =   0.0163934
        k(    7) = (   0.0666667   0.1154701   0.0000000), wk =   0.0163934
        k(    8) = (   0.0777778   0.1347151   0.0000000), wk =   0.0163934
        k(    9) = (   0.0888889   0.1539601   0.0000000), wk =   0.0163934
        k(   10) = (   0.1000000   0.1732051   0.0000000), wk =   0.0163934
        k(   11) = (   0.1111111   0.1924501   0.0000000), wk =   0.0163934
        k(   12) = (   0.1222222   0.2116951   0.0000000), wk =   0.0163934
        k(   13) = (   0.1333333   0.2309401   0.0000000), wk =   0.0163934
        k(   14) = (   0.1444444   0.2501851   0.0000000), wk =   0.0163934
        k(   15) = (   0.1555556   0.2694301   0.0000000), wk =   0.0163934
        k(   16) = (   0.1666667   0.2886751   0.0000000), wk =   0.0163934
        k(   17) = (   0.1777778   0.3079201   0.0000000), wk =   0.0163934
        k(   18) = (   0.1888889   0.3271652   0.0000000), wk =   0.0163934
        k(   19) = (   0.2000000   0.3464102   0.0000000), wk =   0.0163934
        k(   20) = (   0.2111111   0.3656552   0.0000000), wk =   0.0163934
        k(   21) = (   0.2222222   0.3849002   0.0000000), wk =   0.0163934
        k(   22) = (   0.2333333   0.4041452   0.0000000), wk =   0.0163934
        k(   23) = (   0.2444444   0.4233902   0.0000000), wk =   0.0163934
        k(   24) = (   0.2555556   0.4426352   0.0000000), wk =   0.0163934
        k(   25) = (   0.2666667   0.4618802   0.0000000), wk =   0.0163934
        k(   26) = (   0.2777778   0.4811252   0.0000000), wk =   0.0163934
        k(   27) = (   0.2888889   0.5003702   0.0000000), wk =   0.0163934
        k(   28) = (   0.3000000   0.5196152   0.0000000), wk =   0.0163934
        k(   29) = (   0.3111111   0.5388603   0.0000000), wk =   0.0163934
        k(   30) = (   0.3222222   0.5581053   0.0000000), wk =   0.0163934
        k(   31) = (   0.3333333   0.5773503   0.0000000), wk =   0.0163934
        k(   32) = (   0.3222222   0.5773503   0.0000000), wk =   0.0163934
        k(   33) = (   0.3111111   0.5773503   0.0000000), wk =   0.0163934
        k(   34) = (   0.3000000   0.5773503   0.0000000), wk =   0.0163934
        k(   35) = (   0.2888889   0.5773503   0.0000000), wk =   0.0163934
        k(   36) = (   0.2777778   0.5773503   0.0000000), wk =   0.0163934
        k(   37) = (   0.2666667   0.5773503   0.0000000), wk =   0.0163934
        k(   38) = (   0.2555556   0.5773503   0.0000000), wk =   0.0163934
        k(   39) = (   0.2444444   0.5773503   0.0000000), wk =   0.0163934
        k(   40) = (   0.2333333   0.5773503   0.0000000), wk =   0.0163934
        k(   41) = (   0.2222222   0.5773503   0.0000000), wk =   0.0163934
        k(   42) = (   0.2111111   0.5773503   0.0000000), wk =   0.0163934
        k(   43) = (   0.2000000   0.5773503   0.0000000), wk =   0.0163934
        k(   44) = (   0.1888889   0.5773503   0.0000000), wk =   0.0163934
        k(   45) = (   0.1777778   0.5773503   0.0000000), wk =   0.0163934
        k(   46) = (   0.1666667   0.5773503   0.0000000), wk =   0.0163934
        k(   47) = (   0.1555556   0.5773503   0.0000000), wk =   0.0163934
        k(   48) = (   0.1444444   0.5773503   0.0000000), wk =   0.0163934
        k(   49) = (   0.1333333   0.5773503   0.0000000), wk =   0.0163934
        k(   50) = (   0.1222222   0.5773503   0.0000000), wk =   0.0163934
        k(   51) = (   0.1111111   0.5773503   0.0000000), wk =   0.0163934
        k(   52) = (   0.1000000   0.5773503   0.0000000), wk =   0.0163934
        k(   53) = (   0.0888889   0.5773503   0.0000000), wk =   0.0163934
        k(   54) = (   0.0777778   0.5773503   0.0000000), wk =   0.0163934
        k(   55) = (   0.0666667   0.5773503   0.0000000), wk =   0.0163934
        k(   56) = (   0.0555556   0.5773503   0.0000000), wk =   0.0163934
        k(   57) = (   0.0444444   0.5773503   0.0000000), wk =   0.0163934
        k(   58) = (   0.0333333   0.5773503   0.0000000), wk =   0.0163934
        k(   59) = (   0.0222222   0.5773503   0.0000000), wk =   0.0163934
        k(   60) = (   0.0111111   0.5773503   0.0000000), wk =   0.0163934
        k(   61) = (   0.0000000   0.5773503   0.0000000), wk =   0.0163934

     Dense  grid:   363965 G-vectors     FFT dimensions: (  60,  60, 270)

     Smooth grid:   120829 G-vectors     FFT dimensions: (  40,  40, 192)

     Estimated max dynamical RAM per process >       3.64 GB

     Initial potential from superposition of free atoms

     starting charge      27.9983, renormalised to      28.0000

     negative rho (up, down):  4.309E-06 0.000E+00
     Starting wfcs are   36 randomized atomic wfcs +   64 random wfcs

     total cpu time spent up to now is       54.1 secs

     Self-consistent Calculation

     iteration #  1     ecut=    60.00 Ry     beta= 0.70
     Davidson diagonalization with overlap
     ethr =  1.00E-02,  avg # of iterations =  8.3

     Threshold (ethr) on eigenvalues was too large:
     Diagonalizing with lowered threshold

     Davidson diagonalization with overlap
     ethr =  1.38E-04,  avg # of iterations =  4.0

     total cpu time spent up to now is      510.2 secs

     total energy              =    -357.08364308 Ry
     estimated scf accuracy    <       0.03871015 Ry

     iteration #  2     ecut=    60.00 Ry     beta= 0.70
     Davidson diagonalization with overlap
     ethr =  1.38E-04,  avg # of iterations =  4.0

     total cpu time spent up to now is      657.6 secs

     total energy              =    -357.08768534 Ry
     estimated scf accuracy    <       0.00116728 Ry

     iteration #  3     ecut=    60.00 Ry     beta= 0.70
     Davidson diagonalization with overlap
     c_bands:  1 eigenvalues not converged
     ethr =  4.17E-06,  avg # of iterations =  8.6

     total cpu time spent up to now is      853.4 secs

     total energy              =    -357.08789995 Ry
     estimated scf accuracy    <       0.00017850 Ry

     iteration #  4     ecut=    60.00 Ry     beta= 0.70
     Davidson diagonalization with overlap
     ethr =  6.38E-07,  avg # of iterations =  2.0

     total cpu time spent up to now is      994.2 secs

     total energy              =    -357.08793206 Ry
     estimated scf accuracy    <       0.00001375 Ry

     iteration #  5     ecut=    60.00 Ry     beta= 0.70
     Davidson diagonalization with overlap
     ethr =  4.91E-08,  avg # of iterations =  1.6

     total cpu time spent up to now is     1125.7 secs

     total energy              =    -357.08793360 Ry
     estimated scf accuracy    <       0.00000024 Ry

     iteration #  6     ecut=    60.00 Ry     beta= 0.70
     Davidson diagonalization with overlap
     ethr =  8.65E-10,  avg # of iterations =  2.0

     total cpu time spent up to now is     1271.2 secs

     total energy              =    -357.08793368 Ry
     estimated scf accuracy    <       0.00000003 Ry

     iteration #  7     ecut=    60.00 Ry     beta= 0.70
     Davidson diagonalization with overlap
     ethr =  1.12E-10,  avg # of iterations =  2.0

     total cpu time spent up to now is     1415.7 secs

     End of self-consistent calculation

          k = 0.0000 0.0000 0.0000 ( 15225 PWs)   bands (ev):

   -27.1551 -27.1551 -27.1429 -27.1429 -27.1164 -27.1164 -27.0724 -27.0724
   -26.6292 -26.6292 -26.5541 -26.5541 -26.5078 -26.5078 -26.4976 -26.4976
   -26.4751 -26.4751 -26.4136 -26.4136 -13.4574 -13.4574  -5.7770  -5.7770
    -2.8356  -2.8356  -2.6400  -2.6400  -1.8561  -1.8561   0.0419   0.0419
     1.5234   1.5234   1.6476   1.6476   1.9798   1.9798   2.0973   2.0973
     2.9366   2.9366   3.3703   3.3703   4.3996   4.3996   5.7018   5.7018
     5.8509   5.8509   6.6392   6.6392   7.7452   7.7452   7.7670   7.7670
     8.7945   8.7945   9.2785   9.2785   9.8108   9.8108   9.8142   9.8142
    10.3501  10.3501  12.5010  12.5010  12.5146  12.5146  12.6118  12.6118
    12.9368  12.9368  13.0845  13.0845  13.2076  13.2076  13.2191  13.2191
    13.7666  13.7667  14.0444  14.0444  14.1178  14.1178  14.1218  14.1219
    14.2824  14.2824  14.3243  14.3244  14.3248  14.3249  14.3503  14.3503
    14.3515  14.3516  14.3982  14.3984

          k = 0.0111 0.0192 0.0000 ( 15201 PWs)   bands (ev):

   -27.1541 -27.1541 -27.1422 -27.1422 -27.1159 -27.1159 -27.0718 -27.0718
   -26.6284 -26.6284 -26.5538 -26.5538 -26.5067 -26.5067 -26.4976 -26.4976
   -26.4732 -26.4732 -26.4127 -26.4127 -13.4534 -13.4534  -5.7797  -5.7797
    -2.8893  -2.8893  -2.6871  -2.6871  -1.7625  -1.7625   0.0439   0.0439
     1.5267   1.5267   1.6518   1.6518   1.9842   1.9842   2.1016   2.1016
     2.9384   2.9384   3.3746   3.3746   4.3995   4.3995   5.7058   5.7058
     5.8707   5.8707   6.6197   6.6197   7.7363   7.7363   7.7778   7.7778
     8.7889   8.7889   9.2881   9.2881   9.7318   9.7318   9.8392   9.8392
    10.4579  10.4579  12.2572  12.2572  12.4404  12.4404  12.7797  12.7797
    12.9273  12.9273  13.1042  13.1042  13.1453  13.1453  13.2945  13.2945
    13.7353  13.7353  13.8764  13.8764  13.8957  13.8957  13.9682  13.9682
    14.0607  14.0608  14.2281  14.2281  14.2523  14.2524  14.3927  14.3927
    14.4070  14.4071  14.5605  14.5607

          k = 0.0222 0.0385 0.0000 ( 15187 PWs)   bands (ev):

   -27.1537 -27.1537 -27.1417 -27.1417 -27.1152 -27.1152 -27.0717 -27.0717
   -26.6277 -26.6277 -26.5538 -26.5538 -26.5056 -26.5056 -26.4988 -26.4988
   -26.4713 -26.4713 -26.4126 -26.4126 -13.4414 -13.4414  -5.7884  -5.7884
    -3.0582  -3.0582  -2.7497  -2.7497  -1.5525  -1.5525   0.0496   0.0496
     1.5244   1.5244   1.6774   1.6774   1.9975   1.9975   2.1142   2.1142
     2.9437   2.9437   3.3877   3.3877   4.3981   4.3981   5.7176   5.7176
     5.9292   5.9292   6.5687   6.5687   7.6854   7.6854   7.8274   7.8274
     8.7727   8.7727   9.3145   9.3145   9.5919   9.5919   9.9195   9.9195
    10.6705  10.6705  11.9608  11.9608  12.2458  12.2458  12.8699  12.8699
    12.9001  12.9001  13.0441  13.0441  13.1233  13.1233  13.4080  13.4080
    13.4623  13.4624  13.5266  13.5266  13.6385  13.6385  13.7088  13.7089
    14.1816  14.1816  14.2441  14.2441  14.2539  14.2540  14.4054  14.4055
    14.4535  14.4537  14.7364  14.7371

          k = 0.0333 0.0577 0.0000 ( 15179 PWs)   bands (ev):

   -27.1539 -27.1539 -27.1415 -27.1415 -27.1144 -27.1144 -27.0717 -27.0717
   -26.6270 -26.6270 -26.5539 -26.5539 -26.5052 -26.5052 -26.5008 -26.5008
   -26.4689 -26.4689 -26.4127 -26.4127 -13.4215 -13.4215  -5.8051  -5.8051
    -3.2852  -3.2852  -2.8061  -2.8061  -1.3045  -1.3045   0.0588   0.0588
     1.5019   1.5019   1.7436   1.7436   2.0198   2.0198   2.1350   2.1350
     2.9515   2.9515   3.4094   3.4094   4.3931   4.3931   5.7372   5.7372
     6.0232   6.0232   6.5044   6.5044   7.5947   7.5947   7.8997   7.8997
     8.7488   8.7488   9.3526   9.3526   9.4749   9.4749  10.0543  10.0543
    10.8553  10.8553  11.7345  11.7345  11.9702  11.9702  12.7851  12.7851
    12.9071  12.9071  12.9474  12.9474  13.0520  13.0520  13.1635  13.1635
    13.1793  13.1793  13.2842  13.2842  13.3387  13.3387  13.9438  13.9438
    14.2158  14.2158  14.2330  14.2330  14.3405  14.3405  14.3466  14.3466
    14.3974  14.3974  14.4589  14.4590

          k = 0.0444 0.0770 0.0000 ( 15183 PWs)   bands (ev):

   -27.1542 -27.1542 -27.1417 -27.1417 -27.1142 -27.1142 -27.0725 -27.0725
   -26.6263 -26.6263 -26.5545 -26.5545 -26.5050 -26.5050 -26.5037 -26.5037
   -26.4664 -26.4664 -26.4131 -26.4131 -13.3936 -13.3936  -5.8330  -5.8330
    -3.5208  -3.5208  -2.8718  -2.8718  -1.0502  -1.0502   0.0707   0.0707
     1.4640   1.4640   1.8510   1.8510   2.0512   2.0512   2.1635   2.1635
     2.9609   2.9609   3.4397   3.4397   4.3823   4.3823   5.7640   5.7640
     6.1404   6.1404   6.4518   6.4518   7.4650   7.4650   7.9851   7.9851
     8.7238   8.7238   9.3963   9.3963   9.4007   9.4007  10.2399  10.2399
    10.8585  10.8585  11.6609  11.6609  11.7142  11.7142  12.5008  12.5008
    12.7375  12.7375  12.7770  12.7770  12.7970  12.7970  12.9843  12.9843
    13.0291  13.0291  13.2102  13.2102  13.2716  13.2716  13.9639  13.9639
    13.9903  13.9903  14.0979  14.0979  14.2628  14.2628  14.2803  14.2803
    14.3510  14.3510  14.4575  14.4576

          k = 0.0556 0.0962 0.0000 ( 15187 PWs)   bands (ev):

   -27.1542 -27.1542 -27.1422 -27.1422 -27.1143 -27.1143 -27.0730 -27.0730
   -26.6254 -26.6254 -26.5549 -26.5549 -26.5081 -26.5081 -26.5039 -26.5039
   -26.4639 -26.4639 -26.4131 -26.4131 -13.3577 -13.3577  -5.8770  -5.8770
    -3.7435  -3.7435  -2.9514  -2.9514  -0.8030  -0.8030   0.0845   0.0845
     1.4201   1.4201   1.9948   1.9948   2.0936   2.0936   2.1996   2.1996
     2.9706   2.9706   3.4786   3.4786   4.3655   4.3655   5.7975   5.7975
     6.2329   6.2329   6.4662   6.4662   7.3028   7.3028   8.0803   8.0803
     8.7047   8.7047   9.3578   9.3578   9.4511   9.4511  10.4674  10.4674
    10.6638  10.6638  11.3452  11.3452  11.8988  11.8988  12.1694  12.1694
    12.3922  12.3922  12.4565  12.4565  12.4638  12.4638  13.0084  13.0084
    13.0248  13.0248  13.1612  13.1612  13.3272  13.3272  13.6422  13.6422
    13.6450  13.6450  13.8385  13.8385  14.0133  14.0134  14.3617  14.3619
    14.3689  14.3689  14.5224  14.5251

          k = 0.0667 0.1155 0.0000 ( 15187 PWs)   bands (ev):

   -27.1540 -27.1540 -27.1424 -27.1424 -27.1143 -27.1143 -27.0736 -27.0736
   -26.6240 -26.6240 -26.5554 -26.5554 -26.5115 -26.5115 -26.5034 -26.5034
   -26.4613 -26.4613 -26.4131 -26.4131 -13.3140 -13.3140  -5.9430  -5.9430
    -3.9403  -3.9403  -3.0455  -3.0455  -0.5698  -0.5698   0.0986   0.0986
     1.3764   1.3764   2.1274   2.1274   2.1913   2.1913   2.2436   2.2436
     2.9795   2.9795   3.5260   3.5260   4.3446   4.3446   5.8363   5.8363
     6.2448   6.2448   6.6042   6.6042   7.1206   7.1206   8.1854   8.1854
     8.6942   8.6942   9.3414   9.3414   9.5102   9.5102  10.4062  10.4062
    10.7057  10.7057  11.0554  11.0554  11.8337  11.8337  11.9873  11.9873
    12.0961  12.0961  12.1163  12.1163  12.2392  12.2392  13.0276  13.0276
    13.0414  13.0414  13.0673  13.0673  13.2832  13.2832  13.3811  13.3811
    13.4241  13.4241  13.5622  13.5622  13.7549  13.7549  14.4111  14.4111
    14.4131  14.4131  14.5243  14.5243

          k = 0.0778 0.1347 0.0000 ( 15209 PWs)   bands (ev):

   -27.1549 -27.1549 -27.1432 -27.1432 -27.1146 -27.1146 -27.0752 -27.0752
   -26.6232 -26.6232 -26.5569 -26.5569 -26.5159 -26.5159 -26.5032 -26.5032
   -26.4593 -26.4593 -26.4144 -26.4144 -13.2625 -13.2625  -6.0368  -6.0368
    -4.1020  -4.1020  -3.1535  -3.1535  -0.3537  -0.3537   0.1114   0.1114
     1.3379   1.3379   2.1909   2.1909   2.2905   2.2905   2.4024   2.4024
     2.9872   2.9872   3.5817   3.5817   4.3242   4.3242   5.8779   5.8779
     6.2346   6.2346   6.8018   6.8018   6.9328   6.9328   8.3036   8.3036
     8.6885   8.6885   9.3357   9.3357   9.5767   9.5767  10.1521  10.1521
    10.6459  10.6459  11.0945  11.0945  11.5053  11.5053  11.6758  11.6758
    11.7741  11.7741  11.7794  11.7794  12.4233  12.4233  12.8292  12.8292
    12.9578  12.9578  12.9953  12.9953  13.0232  13.0232  13.2706  13.2706
    13.2811  13.2811  13.5927  13.5927  13.6027  13.6027  14.4623  14.4624
    14.4664  14.4670  14.5806  14.6260

          k = 0.0889 0.1540 0.0000 ( 15181 PWs)   bands (ev):

   -27.1542 -27.1542 -27.1424 -27.1424 -27.1135 -27.1135 -27.0748 -27.0748
   -26.6206 -26.6206 -26.5567 -26.5567 -26.5184 -26.5184 -26.5018 -26.5018
   -26.4557 -26.4557 -26.4129 -26.4129 -13.2032 -13.2032  -6.1622  -6.1622
    -4.2224  -4.2224  -3.2742  -3.2742  -0.1564  -0.1564   0.1216   0.1216
     1.3092   1.3092   2.2576   2.2576   2.3458   2.3458   2.6437   2.6437
     2.9945   2.9945   3.6457   3.6457   4.3098   4.3098   5.9175   5.9175
     6.2354   6.2354   6.7548   6.7548   7.0191   7.0191   8.4390   8.4390
     8.6770   8.6770   9.3258   9.3258   9.6516   9.6516   9.9360   9.9360
    10.3562  10.3562  11.1680  11.1680  11.3446  11.3446  11.3810  11.3810
    11.4505  11.4505  11.4791  11.4791  12.4393  12.4393  12.5287  12.5287
    12.7519  12.7519  12.7897  12.7897  12.8948  12.8948  13.2466  13.2466
    13.3056  13.3056  13.5431  13.5431  13.7922  13.7922  14.5139  14.5139
    14.5175  14.5177  14.6434  14.6437

          k = 0.1000 0.1732 0.0000 ( 15185 PWs)   bands (ev):

   -27.1546 -27.1546 -27.1430 -27.1430 -27.1131 -27.1131 -27.0755 -27.0755
   -26.6193 -26.6193 -26.5572 -26.5572 -26.5221 -26.5221 -26.5011 -26.5011
   -26.4537 -26.4537 -26.4128 -26.4128 -13.1362 -13.1362  -6.3190  -6.3190
    -4.3005  -4.3005  -3.4060  -3.4060   0.0141   0.0141   0.1354   0.1354
     1.2929   1.2929   2.3320   2.3320   2.4050   2.4050   2.9017   2.9017
     3.0054   3.0054   3.7178   3.7178   4.3065   4.3065   5.9454   5.9454
     6.2528   6.2528   6.6096   6.6096   7.2353   7.2353   8.5951   8.5951
     8.6389   8.6389   9.2973   9.2973   9.7347   9.7347   9.7920   9.7920
    10.0607  10.0607  10.8634  10.8634  11.0200  11.0200  11.1164  11.1164
    11.1378  11.1378  11.7455  11.7455  12.1960  12.1960  12.2194  12.2194
    12.4856  12.4856  12.4986  12.4986  13.0047  13.0047  13.3046  13.3046
    13.3779  13.3780  13.5510  13.5511  14.0374  14.0374  14.4703  14.4704
    14.4964  14.4967  14.6327  14.6331

          k = 0.1111 0.1925 0.0000 ( 15165 PWs)   bands (ev):

   -27.1540 -27.1540 -27.1429 -27.1429 -27.1118 -27.1118 -27.0756 -27.0756
   -26.6169 -26.6169 -26.5570 -26.5570 -26.5249 -26.5249 -26.4996 -26.4996
   -26.4509 -26.4509 -26.4120 -26.4120 -13.0616 -13.0616  -6.5031  -6.5031
    -4.3394  -4.3394  -3.5473  -3.5473   0.0805   0.0805   0.2292   0.2292
     1.2921   1.2921   2.4145   2.4145   2.4667   2.4667   3.0116   3.0116
     3.1750   3.1750   3.7985   3.7985   4.3186   4.3186   5.9486   5.9486
     6.2872   6.2872   6.5220   6.5220   7.4386   7.4386   8.5462   8.5462
     8.7734   8.7734   9.2628   9.2628   9.7311   9.7311   9.7572   9.7572
     9.8457   9.8457  10.5687  10.5687  10.7037  10.7037  10.8030  10.8030
    10.8401  10.8401  11.9009  11.9009  11.9125  11.9125  12.0573  12.0573
    12.2018  12.2018  12.2330  12.2330  13.1355  13.1355  13.3798  13.3798
    13.4704  13.4704  13.5774  13.5774  14.1808  14.1808  14.2598  14.2599
    14.3230  14.3231  14.5352  14.5357

          k = 0.1222 0.2117 0.0000 ( 15153 PWs)   bands (ev):

   -27.1539 -27.1539 -27.1427 -27.1427 -27.1112 -27.1112 -27.0759 -27.0759
   -26.6148 -26.6148 -26.5572 -26.5572 -26.5279 -26.5279 -26.4984 -26.4984
   -26.4485 -26.4485 -26.4112 -26.4112 -12.9796 -12.9796  -6.7080  -6.7080
    -4.3450  -4.3450  -3.6961  -3.6961   0.0626   0.0626   0.3831   0.3831
     1.3089   1.3089   2.5048   2.5048   2.5292   2.5292   3.0363   3.0363
     3.4255   3.4255   3.8896   3.8896   4.3481   4.3481   5.9277   5.9277
     6.3372   6.3372   6.5072   6.5072   7.6181   7.6181   8.3889   8.3889
     8.9625   8.9625   9.2568   9.2568   9.5003   9.5003   9.7199   9.7199
     9.9345   9.9345  10.3026  10.3026  10.3966  10.3966  10.4976  10.4976
    10.5652  10.5652  11.6028  11.6028  11.6177  11.6177  11.8934  11.8934
    11.9126  11.9126  12.4502  12.4503  13.2424  13.2424  13.4580  13.4580
    13.5437  13.5437  13.6114  13.6114  13.9187  13.9187  14.0093  14.0093
    14.2744  14.2744  14.4088  14.4089

          k = 0.1333 0.2309 0.0000 ( 15129 PWs)   bands (ev):

   -27.1534 -27.1534 -27.1419 -27.1419 -27.1101 -27.1101 -27.0758 -27.0758
   -26.6120 -26.6120 -26.5575 -26.5575 -26.5302 -26.5302 -26.4969 -26.4969
   -26.4459 -26.4459 -26.4099 -26.4099 -12.8902 -12.8902  -6.9274  -6.9274
    -4.3235  -4.3235  -3.8503  -3.8503   0.0197   0.0197   0.5383   0.5383
     1.3446   1.3446   2.5898   2.5898   2.6037   2.6037   3.0757   3.0757
     3.6333   3.6333   3.9974   3.9974   4.3958   4.3958   5.9158   5.9158
     6.4011   6.4011   6.5527   6.5527   7.7656   7.7656   8.1868   8.1868
     9.0886   9.0886   9.2838   9.2838   9.3111   9.3111   9.7102   9.7102
     9.9561   9.9561  10.1002  10.1002  10.1665  10.1665  10.2035  10.2035
    10.3320  10.3320  11.3099  11.3099  11.3353  11.3353  11.6154  11.6154
    11.6350  11.6350  12.7681  12.7681  13.2876  13.2876  13.4897  13.4897
    13.5146  13.5146  13.6155  13.6155  13.7157  13.7157  13.8970  13.8970
    14.0420  14.0421  14.2562  14.2562

          k = 0.1444 0.2502 0.0000 ( 15137 PWs)   bands (ev):

   -27.1535 -27.1535 -27.1419 -27.1419 -27.1109 -27.1109 -27.0772 -27.0772
   -26.6099 -26.6099 -26.5585 -26.5585 -26.5336 -26.5336 -26.4960 -26.4960
   -26.4450 -26.4450 -26.4100 -26.4100 -12.7937 -12.7937  -7.1554  -7.1554
    -4.2811  -4.2811  -4.0074  -4.0074  -0.0433  -0.0433   0.6917   0.6917
     1.3993   1.3993   2.6504   2.6504   2.7083   2.7083   3.1346   3.1346
     3.7656   3.7656   4.1276   4.1276   4.4607   4.4607   5.9551   5.9551
     6.4767   6.4767   6.6374   6.6374   7.8705   7.8705   7.9665   7.9665
     8.9500   8.9500   9.3161   9.3161   9.3424   9.3424   9.6450   9.6450
     9.8202   9.8202   9.8487   9.8487   9.9166   9.9166  10.1825  10.1825
    10.2788  10.2788  11.0249  11.0249  11.0762  11.0762  11.3413  11.3413
    11.3734  11.3734  13.0317  13.0317  13.1657  13.1657  13.3196  13.3196
    13.4838  13.4838  13.4991  13.4991  13.6795  13.6795  13.8930  13.8930
    13.9902  13.9902  14.2019  14.2019

          k = 0.1556 0.2694 0.0000 ( 15125 PWs)   bands (ev):

   -27.1533 -27.1533 -27.1417 -27.1417 -27.1105 -27.1105 -27.0773 -27.0773
   -26.6075 -26.6075 -26.5592 -26.5592 -26.5360 -26.5360 -26.4953 -26.4953
   -26.4434 -26.4434 -26.4088 -26.4088 -12.6902 -12.6902  -7.3878  -7.3878
    -4.2348  -4.2348  -4.1528  -4.1528  -0.1251  -0.1251   0.8444   0.8444
     1.4726   1.4726   2.7117   2.7117   2.8187   2.8187   3.2143   3.2143
     3.8174   3.8174   4.2696   4.2696   4.5420   4.5420   6.0685   6.0685
     6.5619   6.5619   6.7486   6.7486   7.7410   7.7410   7.9242   7.9242
     8.7646   8.7646   9.2419   9.2419   9.3432   9.3432   9.4801   9.4801
     9.6120   9.6120   9.6444   9.6444   9.8822   9.8822  10.1370  10.1370
    10.4194  10.4194  10.7496  10.7496  10.8833  10.8833  11.0773  11.0773
    11.1352  11.1352  12.9323  12.9323  13.0007  13.0007  13.2248  13.2248
    13.3449  13.3449  13.4281  13.4281  13.7437  13.7437  13.9154  13.9154
    14.0455  14.0455  14.2276  14.2276

          k = 0.1667 0.2887 0.0000 ( 15129 PWs)   bands (ev):

   -27.1538 -27.1538 -27.1417 -27.1417 -27.1107 -27.1107 -27.0778 -27.0778
   -26.6056 -26.6056 -26.5605 -26.5605 -26.5383 -26.5383 -26.4947 -26.4947
   -26.4432 -26.4432 -26.4077 -26.4077 -12.5799 -12.5799  -7.6214  -7.6214
    -4.3418  -4.3418  -4.1307  -4.1307  -0.2237  -0.2237   0.9979   0.9979
     1.5630   1.5630   2.7772   2.7772   2.9320   2.9320   3.3133   3.3133
     3.8065   3.8065   4.4112   4.4112   4.6381   4.6381   6.2444   6.2444
     6.6534   6.6534   6.8782   6.8782   7.5382   7.5382   7.8993   7.8993
     8.6180   8.6180   9.0660   9.0660   9.2084   9.2084   9.2324   9.2324
     9.3909   9.3909   9.6004   9.6004   9.9821   9.9821  10.1401  10.1401
    10.4101  10.4101  10.4869  10.4869  10.8062  10.8062  10.9327  10.9327
    10.9387  10.9387  12.6783  12.6783  12.7734  12.7734  13.0241  13.0241
    13.1211  13.1211  13.6109  13.6109  13.8323  13.8323  13.8627  13.8627
    14.0163  14.0163  14.3006  14.3006

          k = 0.1778 0.3079 0.0000 ( 15131 PWs)   bands (ev):

   -27.1541 -27.1541 -27.1417 -27.1417 -27.1113 -27.1113 -27.0782 -27.0782
   -26.6039 -26.6039 -26.5614 -26.5614 -26.5406 -26.5406 -26.4938 -26.4938
   -26.4434 -26.4434 -26.4065 -26.4065 -12.4632 -12.4632  -7.8536  -7.8536
    -4.4997  -4.4997  -4.0445  -4.0445  -0.3367  -0.3367   1.1534   1.1534
     1.6694   1.6694   2.8505   2.8505   3.0418   3.0418   3.4294   3.4294
     3.7573   3.7573   4.5535   4.5535   4.7478   4.7478   6.4355   6.4355
     6.7464   6.7464   7.0029   7.0029   7.4028   7.4028   7.8010   7.8010
     8.4956   8.4956   8.8853   8.8853   8.9727   8.9727   9.0062   9.0062
     9.1719   9.1719   9.6641   9.6641   9.9894   9.9894  10.1281  10.1281
    10.2456  10.2456  10.3393  10.3393  10.5713  10.5713  10.8023  10.8023
    11.1495  11.1495  12.4248  12.4248  12.5448  12.5448  12.7980  12.7980
    12.8882  12.8882  13.4693  13.4693  13.8129  13.8129  13.9768  13.9768
    14.1377  14.1377  14.3998  14.3998

          k = 0.1889 0.3272 0.0000 ( 15121 PWs)   bands (ev):

   -27.1538 -27.1538 -27.1406 -27.1406 -27.1119 -27.1119 -27.0782 -27.0782
   -26.6015 -26.6015 -26.5618 -26.5618 -26.5425 -26.5425 -26.4926 -26.4926
   -26.4435 -26.4435 -26.4050 -26.4050 -12.3402 -12.3402  -8.0829  -8.0829
    -4.6575  -4.6575  -3.9455  -3.9455  -0.4615  -0.4615   1.3115   1.3115
     1.7905   1.7905   2.9339   2.9339   3.1323   3.1323   3.5602   3.5602
     3.7034   3.7034   4.7005   4.7005   4.8698   4.8698   6.5535   6.5535
     6.8302   6.8302   7.0651   7.0651   7.4497   7.4497   7.6650   7.6650
     8.3511   8.3511   8.7051   8.7051   8.7216   8.7216   8.8025   8.8025
     9.0219   9.0219   9.6941   9.6941   9.8318   9.8318  10.0103  10.0103
    10.1187  10.1187  10.3366  10.3366  10.3956  10.3956  10.7637  10.7637
    11.3660  11.3660  12.1775  12.1775  12.3372  12.3372  12.5757  12.5757
    12.6613  12.6613  13.1282  13.1282  14.0006  14.0006  14.1092  14.1092
    14.2693  14.2693  14.5086  14.5086

          k = 0.2000 0.3464 0.0000 ( 15117 PWs)   bands (ev):

   -27.1542 -27.1542 -27.1401 -27.1401 -27.1122 -27.1122 -27.0780 -27.0780
   -26.6002 -26.6002 -26.5621 -26.5621 -26.5435 -26.5435 -26.4919 -26.4919
   -26.4444 -26.4444 -26.4030 -26.4030 -12.2114 -12.2114  -8.3078  -8.3078
    -4.8123  -4.8123  -3.8369  -3.8369  -0.5953  -0.5953   1.4730   1.4730
     1.9249   1.9249   3.0287   3.0287   3.1709   3.1709   3.6916   3.6916
     3.7044   3.7044   4.8546   4.8546   5.0028   5.0028   6.5086   6.5086
     6.8820   6.8820   7.1542   7.1542   7.5353   7.5353   7.6387   7.6387
     8.1777   8.1777   8.4769   8.4769   8.5034   8.5034   8.6343   8.6343
     8.9436   8.9436   9.5930   9.5930   9.6195   9.6195   9.8488   9.8488
    10.1276  10.1276  10.1407  10.1407  10.4670  10.4670  10.8046  10.8046
    11.4679  11.4679  11.9390  11.9390  12.1434  12.1434  12.3604  12.3604
    12.4466  12.4466  12.9659  12.9659  14.1829  14.1829  14.2451  14.2451
    14.4027  14.4027  14.6136  14.6136

          k = 0.2111 0.3657 0.0000 ( 15105 PWs)   bands (ev):

   -27.1542 -27.1542 -27.1392 -27.1392 -27.1127 -27.1127 -27.0776 -27.0776
   -26.5988 -26.5988 -26.5620 -26.5620 -26.5443 -26.5443 -26.4912 -26.4912
   -26.4451 -26.4451 -26.4003 -26.4003 -12.0772 -12.0772  -8.5275  -8.5275
    -4.9623  -4.9623  -3.7204  -3.7204  -0.7357  -0.7357   1.6380   1.6380
     2.0718   2.0718   3.1259   3.1259   3.1432   3.1432   3.7568   3.7568
     3.8597   3.8597   5.0166   5.0166   5.1455   5.1455   6.3576   6.3576
     6.8666   6.8666   7.3037   7.3037   7.4603   7.4603   7.7886   7.7886
     8.0023   8.0023   8.2424   8.2424   8.2892   8.2892   8.5626   8.5626
     8.8808   8.8808   9.3862   9.3862   9.4093   9.4093   9.7092   9.7092
     9.9287   9.9287  10.2474  10.2474  10.5089  10.5089  10.8885  10.8885
    11.4421  11.4421  11.7115  11.7115  11.9373  11.9373  12.1402  12.1402
    12.2495  12.2495  13.0806  13.0806  14.3508  14.3508  14.3714  14.3714
    14.5177  14.5177  14.6931  14.6932

          k = 0.2222 0.3849 0.0000 ( 15073 PWs)   bands (ev):

   -27.1533 -27.1533 -27.1373 -27.1373 -27.1127 -27.1127 -27.0767 -27.0767
   -26.5971 -26.5971 -26.5608 -26.5608 -26.5440 -26.5440 -26.4896 -26.4896
   -26.4459 -26.4459 -26.3965 -26.3965 -11.9382 -11.9382  -8.7411  -8.7411
    -5.1062  -5.1062  -3.5971  -3.5971  -0.8804  -0.8804   1.8058   1.8058
     2.2301   2.2301   3.0453   3.0453   3.2544   3.2544   3.8809   3.8809
     4.0262   4.0262   5.1864   5.1864   5.2961   5.2961   6.1752   6.1752
     6.7707   6.7707   7.4273   7.4273   7.4702   7.4702   7.7827   7.7827
     7.8599   7.8599   8.0180   8.0180   8.0831   8.0831   8.6345   8.6345
     8.7869   8.7869   9.1584   9.1584   9.1983   9.1983   9.6122   9.6122
     9.7296   9.7296  10.3938  10.3938  10.4986  10.4986  10.9883  10.9883
    11.3896  11.3896  11.4996  11.4996  11.7500  11.7500  11.9262  11.9262
    12.0783  12.0783  13.3690  13.3690  14.4046  14.4046  14.4531  14.4531
    14.5846  14.5846  14.7291  14.7291

          k = 0.2333 0.4041 0.0000 ( 15073 PWs)   bands (ev):

   -27.1534 -27.1534 -27.1365 -27.1365 -27.1137 -27.1137 -27.0765 -27.0765
   -26.5963 -26.5963 -26.5605 -26.5605 -26.5446 -26.5446 -26.4885 -26.4885
   -26.4482 -26.4482 -26.3955 -26.3955 -11.7948 -11.7948  -8.9482  -8.9482
    -5.2427  -5.2427  -3.4683  -3.4683  -1.0275  -1.0275   1.9747   1.9747
     2.3991   2.3991   2.9413   2.9413   3.3831   3.3831   4.0371   4.0371
     4.2028   4.2028   5.3624   5.3624   5.4517   5.4517   5.9882   5.9882
     6.6283   6.6283   7.3544   7.3544   7.5914   7.5914   7.6991   7.6991
     7.7602   7.7602   7.8153   7.8153   7.9384   7.9384   8.6238   8.6238
     8.7286   8.7286   8.9340   8.9340   8.9906   8.9906   9.5140   9.5140
     9.6250   9.6250  10.4555  10.4555  10.5616  10.5616  11.0819  11.0819
    11.3162  11.3162  11.3219  11.3219  11.6629  11.6629  11.7288  11.7288
    11.9481  11.9481  13.7121  13.7121  14.2615  14.2615  14.4067  14.4067
    14.6391  14.6391  14.6741  14.6741

          k = 0.2444 0.4234 0.0000 ( 15087 PWs)   bands (ev):

   -27.1540 -27.1540 -27.1359 -27.1359 -27.1151 -27.1151 -27.0769 -27.0769
   -26.5962 -26.5962 -26.5604 -26.5604 -26.5453 -26.5453 -26.4885 -26.4885
   -26.4512 -26.4512 -26.3949 -26.3949 -11.6478 -11.6478  -9.1484  -9.1484
    -5.3707  -5.3707  -3.3349  -3.3349  -1.1755  -1.1755   2.1392   2.1392
     2.5773   2.5773   2.8431   2.8431   3.5212   3.5212   4.2124   4.2124
     4.3890   4.3890   5.5344   5.5344   5.6059   5.6059   5.8153   5.8153
     6.4745   6.4745   7.2164   7.2164   7.4669   7.4669   7.5775   7.5775
     7.5956   7.5956   7.8703   7.8703   7.9550   7.9550   8.3949   8.3949
     8.6968   8.6968   8.7316   8.7316   8.7944   8.7944   9.2864   9.2864
     9.7743   9.7743  10.4322  10.4322  10.6898  10.6898  11.1324  11.1324
    11.1932  11.1932  11.2253  11.2253  11.5542  11.5542  11.7197  11.7197
    11.8836  11.8836  13.9812  13.9812  14.0683  14.0683  14.3659  14.3659
    14.5333  14.5333  14.5883  14.5884

          k = 0.2556 0.4426 0.0000 ( 15105 PWs)   bands (ev):

   -27.1548 -27.1548 -27.1353 -27.1353 -27.1169 -27.1169 -27.0773 -27.0773
   -26.5963 -26.5963 -26.5604 -26.5604 -26.5461 -26.5461 -26.4882 -26.4882
   -26.4542 -26.4542 -26.3941 -26.3941 -11.4980 -11.4980  -9.3412  -9.3412
    -5.4889  -5.4889  -3.1983  -3.1983  -1.3228  -1.3228   2.2829   2.2829
     2.7437   2.7437   2.7957   2.7957   3.6671   3.6671   4.4009   4.4009
     4.5843   4.5843   5.5663   5.5663   5.7400   5.7400   5.7961   5.7961
     6.3389   6.3389   7.0532   7.0532   7.2943   7.2943   7.3822   7.3822
     7.3980   7.3980   7.9884   7.9884   8.0471   8.0471   8.1370   8.1370
     8.5648   8.5648   8.5752   8.5752   8.6251   8.6251   9.0699   9.0699
     9.9754   9.9754  10.4172  10.4172  10.6754  10.6754  11.0502  11.0502
    11.1498  11.1498  11.3192  11.3192  11.4166  11.4166  11.8537  11.8537
    11.9068  11.9068  13.8683  13.8683  13.9532  13.9532  14.3721  14.3721
    14.4603  14.4603  14.5979  14.5979

          k = 0.2667 0.4619 0.0000 ( 15099 PWs)   bands (ev):

   -27.1548 -27.1548 -27.1342 -27.1342 -27.1179 -27.1179 -27.0767 -27.0767
   -26.5960 -26.5960 -26.5593 -26.5593 -26.5464 -26.5464 -26.4871 -26.4871
   -26.4564 -26.4564 -26.3924 -26.3924 -11.3463 -11.3463  -9.5263  -9.5263
    -5.5960  -5.5960  -3.0594  -3.0594  -1.4684  -1.4684   2.3617   2.3617
     2.7755   2.7755   2.9701   2.9701   3.8189   3.8189   4.5993   4.5993
     4.7879   4.7879   5.4149   5.4149   5.7991   5.7991   5.9759   5.9759
     6.2763   6.2763   6.8894   6.8894   7.1207   7.1207   7.1900   7.1900
     7.1945   7.1945   7.7136   7.7136   8.1129   8.1129   8.1866   8.1866
     8.4288   8.4288   8.4649   8.4649   8.5025   8.5025   8.8922   8.8922
    10.1372  10.1372  10.3818  10.3818  10.5455  10.5455  10.9149  10.9149
    11.1692  11.1692  11.3392  11.3392  11.5608  11.5608  12.0091  12.0091
    12.0243  12.0243  13.6757  13.6757  13.8052  13.8052  14.2072  14.2072
    14.3166  14.3166  14.9240  14.9240

          k = 0.2778 0.4811 0.0000 ( 15130 PWs)   bands (ev):

   -27.1561 -27.1561 -27.1344 -27.1344 -27.1200 -27.1200 -27.0773 -27.0773
   -26.5970 -26.5970 -26.5597 -26.5597 -26.5474 -26.5474 -26.4871 -26.4871
   -26.4603 -26.4603 -26.3921 -26.3921 -11.1938 -11.1938  -9.7036  -9.7036
    -5.6907  -5.6907  -2.9197  -2.9197  -1.6112  -1.6112   2.3503   2.3503
     2.8910   2.8910   3.1740   3.1740   3.9731   3.9731   4.8020   4.8020
     4.9978   4.9978   5.2581   5.2581   5.7271   5.7271   6.1785   6.1785
     6.3279   6.3279   6.7436   6.7436   6.9536   6.9536   6.9719   6.9719
     7.0110   7.0110   7.3841   7.3841   8.0424   8.0424   8.1421   8.1421
     8.2896   8.2896   8.4292   8.4292   8.5638   8.5638   8.8079   8.8079
    10.2097  10.2097  10.3069  10.3069  10.3913  10.3913  10.7816  10.7816
    11.2169  11.2169  11.3459  11.3459  11.8538  11.8538  12.1676  12.1676
    12.2159  12.2159  13.4981  13.4981  13.6439  13.6439  14.0452  14.0452
    14.1776  14.1776  15.2390  15.2390

          k = 0.2889 0.5004 0.0000 ( 15134 PWs)   bands (ev):

   -27.1565 -27.1565 -27.1337 -27.1337 -27.1214 -27.1214 -27.0772 -27.0772
   -26.5975 -26.5975 -26.5588 -26.5588 -26.5478 -26.5478 -26.4861 -26.4861
   -26.4629 -26.4629 -26.3907 -26.3907 -11.0418 -11.0418  -9.8728  -9.8728
    -5.7716  -5.7716  -2.7806  -2.7806  -1.7505  -1.7505   2.2996   2.2996
     3.0629   3.0629   3.3842   3.3842   4.1255   4.1255   4.9674   4.9674
     5.1534   5.1534   5.2059   5.2059   5.5772   5.5772   6.3736   6.3736
     6.3820   6.3820   6.6608   6.6608   6.7303   6.7303   6.8114   6.8114
     6.8378   6.8378   7.1181   7.1181   7.9131   7.9131   7.9968   7.9968
     8.1391   8.1391   8.3417   8.3417   8.7533   8.7533   8.8756   8.8756
    10.1722  10.1722  10.1988  10.1988  10.2603  10.2603  10.6461  10.6461
    11.3133  11.3133  11.4265  11.4265  12.1201  12.1201  12.3644  12.3644
    12.4230  12.4231  13.3565  13.3565  13.4851  13.4851  13.8900  13.8900
    14.0525  14.0525  15.1209  15.1210

          k = 0.3000 0.5196 0.0000 ( 15130 PWs)   bands (ev):

   -27.1566 -27.1566 -27.1326 -27.1326 -27.1222 -27.1222 -27.0768 -27.0768
   -26.5975 -26.5975 -26.5580 -26.5580 -26.5475 -26.5475 -26.4848 -26.4848
   -26.4650 -26.4650 -26.3898 -26.3898 -10.8915 -10.8915 -10.0338 -10.0338
    -5.8371  -5.8371  -2.6436  -2.6436  -1.8856  -1.8856   2.2458   2.2458
     3.2566   3.2566   3.5953   3.5953   4.2691   4.2691   4.9065   4.9065
     5.2810   5.2810   5.2974   5.2974   5.5106   5.5106   6.3022   6.3022
     6.4478   6.4478   6.4976   6.4976   6.6733   6.6733   6.7086   6.7086
     6.7642   6.7642   6.9845   6.9845   7.7725   7.7725   7.8441   7.8441
     7.9898   7.9898   8.2135   8.2135   8.9679   8.9679   9.0283   9.0283
    10.0420  10.0420  10.0804  10.0804  10.1674  10.1674  10.5134  10.5134
    11.4421  11.4421  11.5555  11.5555  12.3052  12.3052  12.5451  12.5451
    12.6421  12.6421  13.3014  13.3014  13.3344  13.3344  13.7439  13.7439
    13.9488  13.9488  14.7346  14.7346

          k = 0.3111 0.5389 0.0000 ( 15158 PWs)   bands (ev):

   -27.1576 -27.1576 -27.1330 -27.1330 -27.1241 -27.1241 -27.0774 -27.0774
   -26.5984 -26.5984 -26.5586 -26.5586 -26.5485 -26.5485 -26.4847 -26.4847
   -26.4679 -26.4679 -26.3900 -26.3900 -10.7446 -10.7446 -10.1865 -10.1865
    -5.8859  -5.8859  -2.5103  -2.5103  -2.0159  -2.0159   2.2018   2.2018
     3.4589   3.4589   3.7938   3.7938   4.3930   4.3930   4.7790   4.7790
     5.0757   5.0757   5.5130   5.5130   5.6997   5.6997   6.1846   6.1846
     6.2328   6.2328   6.4244   6.4244   6.5177   6.5177   6.6304   6.6304
     6.9222   6.9222   7.0680   7.0680   7.6376   7.6376   7.6997   7.6997
     7.8465   7.8465   8.0856   8.0856   9.1864   9.1864   9.2041   9.2041
     9.9027   9.9027   9.9649   9.9649  10.0663  10.0663  10.3914  10.3914
    11.5794  11.5794  11.7113  11.7113  12.3466  12.3466  12.6753  12.6753
    12.8699  12.8699  13.1929  13.1929  13.3665  13.3665  13.6094  13.6094
    13.8754  13.8754  14.3689  14.3689

          k = 0.3222 0.5581 0.0000 ( 15144 PWs)   bands (ev):

   -27.1570 -27.1570 -27.1319 -27.1319 -27.1244 -27.1244 -27.0766 -27.0766
   -26.5978 -26.5978 -26.5578 -26.5578 -26.5482 -26.5482 -26.4833 -26.4833
   -26.4687 -26.4687 -26.3893 -26.3893 -10.6028 -10.6028 -10.3306 -10.3306
    -5.9162  -5.9162  -2.3827  -2.3827  -2.1408  -2.1408   2.1734   2.1734
     3.6601   3.6601   3.9354   3.9354   4.4860   4.4860   4.6599   4.6599
     4.8484   4.8484   5.7379   5.7379   5.8848   5.8848   6.0637   6.0637
     6.1295   6.1295   6.3139   6.3139   6.3711   6.3711   6.5129   6.5129
     7.1300   7.1300   7.2192   7.2192   7.5270   7.5270   7.5756   7.5756
     7.7139   7.7139   7.9784   7.9784   9.3630   9.3630   9.3844   9.3844
     9.7971   9.7971   9.8680   9.8680   9.9563   9.9563  10.2929  10.2929
    11.7030  11.7030  11.8788  11.8788  12.2239  12.2239  12.8139  12.8139
    13.0398  13.0398  13.1305  13.1305  13.4307  13.4307  13.4908  13.4908
    13.8376  13.8376  14.0918  14.0918

          k = 0.3333 0.5774 0.0000 ( 15138 PWs)   bands (ev):

   -27.1570 -27.1570 -27.1319 -27.1319 -27.1244 -27.1244 -27.0761 -27.0761
   -26.5978 -26.5978 -26.5575 -26.5575 -26.5485 -26.5485 -26.4828 -26.4828
   -26.4685 -26.4685 -26.3885 -26.3885 -10.4775 -10.4775 -10.4562 -10.4562
    -5.9267  -5.9267  -2.2734  -2.2734  -2.2488  -2.2488   2.1634   2.1634
     3.8071   3.8071   3.9320   3.9320   4.5538   4.5538   4.5730   4.5730
     4.7501   4.7501   5.9185   5.9185   5.9203   5.9203   5.9501   5.9501
     6.2307   6.2307   6.2310   6.2310   6.2561   6.2561   6.4430   6.4430
     7.2683   7.2683   7.2684   7.2684   7.5089   7.5089   7.5094   7.5094
     7.6279   7.6279   7.9269   7.9269   9.4522   9.4522   9.4526   9.4526
     9.8148   9.8148   9.8155   9.8155   9.8596   9.8596  10.2480  10.2480
    11.7707  11.7707  12.0361  12.0361  12.0498  12.0498  12.9362  12.9362
    12.9399  12.9399  13.3442  13.3442  13.3546  13.3546  13.4047  13.4047
    13.8207  13.8207  13.9991  13.9991

          k = 0.3222 0.5774 0.0000 ( 15140 PWs)   bands (ev):

   -27.1569 -27.1569 -27.1319 -27.1319 -27.1245 -27.1245 -27.0762 -27.0762
   -26.5978 -26.5978 -26.5577 -26.5577 -26.5484 -26.5484 -26.4829 -26.4829
   -26.4685 -26.4685 -26.3889 -26.3889 -10.5325 -10.5325 -10.4013 -10.4013
    -5.9240  -5.9240  -2.3201  -2.3201  -2.2025  -2.2025   2.1660   2.1660
     3.7337   3.7337   3.9729   3.9729   4.5302   4.5302   4.5971   4.5971
     4.7766   4.7766   5.8567   5.8567   5.9481   5.9481   5.9557   5.9557
     6.1667   6.1667   6.2715   6.2715   6.2882   6.2882   6.4779   6.4779
     7.2348   7.2348   7.2637   7.2637   7.4772   7.4772   7.5281   7.5281
     7.6689   7.6689   7.9454   7.9454   9.4203   9.4203   9.4543   9.4543
     9.7796   9.7796   9.8041   9.8041   9.9262   9.9262  10.2630  10.2630
    11.7375  11.7375  11.9878  11.9878  12.1182  12.1182  12.8873  12.8873
    12.9846  12.9846  13.2560  13.2560  13.3488  13.3488  13.4917  13.4917
    13.8279  13.8279  14.0135  14.0135

          k = 0.3111 0.5774 0.0000 ( 15158 PWs)   bands (ev):

   -27.1576 -27.1576 -27.1325 -27.1325 -27.1248 -27.1248 -27.0771 -27.0771
   -26.5985 -26.5985 -26.5581 -26.5581 -26.5489 -26.5489 -26.4838 -26.4838
   -26.4689 -26.4689 -26.3897 -26.3897 -10.5946 -10.5946 -10.3393 -10.3393
    -5.9158  -5.9158  -2.3757  -2.3757  -2.1481  -2.1481   2.1738   2.1738
     3.5849   3.5849   4.0333   4.0333   4.5185   4.5185   4.6088   4.6088
     4.8503   4.8503   5.7944   5.7944   5.9357   5.9357   5.9533   5.9533
     6.1036   6.1036   6.2800   6.2800   6.3701   6.3701   6.5710   6.5710
     7.1882   7.1882   7.2295   7.2295   7.4275   7.4275   7.5314   7.5314
     7.7653   7.7653   8.0019   8.0019   9.3698   9.3698   9.4339   9.4339
     9.7251   9.7251   9.7907   9.7907  10.0331  10.0331  10.3096  10.3096
    11.6404  11.6404  11.9785  11.9785  12.1838  12.1838  12.8413  12.8413
    13.0175  13.0175  13.1491  13.1491  13.3234  13.3234  13.6142  13.6142
    13.8484  13.8484  14.0499  14.0499

          k = 0.3000 0.5774 0.0000 ( 15154 PWs)   bands (ev):

   -27.1574 -27.1574 -27.1325 -27.1325 -27.1244 -27.1244 -27.0771 -27.0771
   -26.5983 -26.5983 -26.5581 -26.5581 -26.5486 -26.5486 -26.4841 -26.4841
   -26.4683 -26.4683 -26.3897 -26.3897 -10.6549 -10.6549 -10.2794 -10.2794
    -5.9020  -5.9020  -2.4303  -2.4303  -2.0958  -2.0958   2.1872   2.1872
     3.4077   3.4077   4.0738   4.0738   4.5343   4.5343   4.6061   4.6061
     4.9531   4.9531   5.7343   5.7343   5.8981   5.8981   5.9445   5.9445
     6.0426   6.0426   6.2919   6.2919   6.4761   6.4761   6.6875   6.6875
     7.1383   7.1383   7.1870   7.1870   7.3736   7.3736   7.5180   7.5180
     7.8832   7.8832   8.0884   8.0884   9.3119   9.3119   9.4006   9.4006
     9.6701   9.6701   9.7693   9.7693  10.1505  10.1505  10.3842  10.3842
    11.5103  11.5103  11.9854  11.9854  12.2370  12.2370  12.8009  12.8009
    13.0302  13.0302  13.0446  13.0446  13.3097  13.3097  13.7377  13.7377
    13.8798  13.8798  14.1053  14.1053

          k = 0.2889 0.5774 0.0000 ( 15154 PWs)   bands (ev):

   -27.1574 -27.1574 -27.1328 -27.1328 -27.1239 -27.1239 -27.0774 -27.0774
   -26.5984 -26.5984 -26.5583 -26.5583 -26.5484 -26.5484 -26.4849 -26.4849
   -26.4674 -26.4674 -26.3899 -26.3899 -10.7131 -10.7131 -10.2221 -10.2221
    -5.8825  -5.8825  -2.4835  -2.4835  -2.0461  -2.0461   2.2059   2.2059
     3.2164   3.2164   4.0866   4.0866   4.5690   4.5690   4.6073   4.6073
     5.0711   5.0711   5.6766   5.6766   5.8516   5.8516   5.9243   5.9243
     5.9839   5.9839   6.3223   6.3223   6.5889   6.5889   6.8103   6.8103
     7.0903   7.0903   7.1464   7.1464   7.3201   7.3201   7.4967   7.4967
     8.0102   8.0102   8.1934   8.1934   9.2513   9.2513   9.3610   9.3610
     9.6158   9.6158   9.7408   9.7408  10.2722  10.2722  10.4794  10.4794
    11.3663  11.3663  11.9910  11.9910  12.2743  12.2743  12.7657  12.7657
    12.9295  12.9295  13.0414  13.0414  13.3112  13.3112  13.8588  13.8588
    13.9207  13.9207  14.1770  14.1770

          k = 0.2778 0.5774 0.0000 ( 15136 PWs)   bands (ev):

   -27.1568 -27.1568 -27.1325 -27.1325 -27.1230 -27.1230 -27.0768 -27.0768
   -26.5977 -26.5977 -26.5581 -26.5581 -26.5476 -26.5476 -26.4844 -26.4844
   -26.4661 -26.4661 -26.3896 -26.3896 -10.7691 -10.7691 -10.1674 -10.1674
    -5.8572  -5.8572  -2.5352  -2.5352  -1.9990  -1.9990   2.2304   2.2304
     3.0175   3.0175   4.0771   4.0771   4.5628   4.5628   4.6690   4.6690
     5.1977   5.1977   5.6216   5.6216   5.8023   5.8023   5.8938   5.8938
     5.9276   5.9276   6.3707   6.3707   6.6962   6.6962   6.9244   6.9244
     7.0546   7.0546   7.1162   7.1162   7.2693   7.2693   7.4760   7.4760
     8.1421   8.1421   8.3088   8.3088   9.1898   9.1898   9.3191   9.3191
     9.5626   9.5626   9.7085   9.7085  10.3952  10.3952  10.5886  10.5886
    11.2166  11.2166  11.9901  11.9901  12.2944  12.2944  12.7347  12.7347
    12.8262  12.8262  13.0326  13.0326  13.3294  13.3294  13.9689  13.9689
    13.9773  13.9773  14.2633  14.2633

          k = 0.2667 0.5774 0.0000 ( 15126 PWs)   bands (ev):

   -27.1564 -27.1564 -27.1328 -27.1328 -27.1221 -27.1221 -27.0765 -27.0765
   -26.5973 -26.5973 -26.5581 -26.5581 -26.5474 -26.5474 -26.4845 -26.4845
   -26.4647 -26.4647 -26.3895 -26.3895 -10.8230 -10.8230 -10.1156 -10.1156
    -5.8261  -5.8261  -2.5854  -2.5854  -1.9547  -1.9547   2.2602   2.2602
     2.8145   2.8145   4.0546   4.0546   4.5399   4.5399   4.7591   4.7591
     5.3288   5.3288   5.5705   5.5705   5.7526   5.7526   5.8569   5.8569
     5.8736   5.8736   6.4316   6.4316   6.7799   6.7799   6.9585   6.9585
     7.0978   7.0978   7.1086   7.1086   7.2260   7.2260   7.4641   7.4641
     8.2764   8.2764   8.4299   8.4299   9.1289   9.1289   9.2772   9.2772
     9.5105   9.5105   9.6752   9.6752  10.5159  10.5159  10.7071  10.7071
    11.0663  11.0663  11.9811  11.9811  12.2985  12.2985  12.7057  12.7057
    12.7288  12.7288  13.0131  13.0131  13.3631  13.3631  14.0331  14.0331
    14.0773  14.0774  14.3611  14.3611

          k = 0.2556 0.5774 0.0000 ( 15122 PWs)   bands (ev):

   -27.1560 -27.1560 -27.1333 -27.1333 -27.1213 -27.1213 -27.0766 -27.0766
   -26.5972 -26.5972 -26.5581 -26.5581 -26.5474 -26.5474 -26.4851 -26.4851
   -26.4632 -26.4632 -26.3899 -26.3899 -10.8747 -10.8747 -10.0668 -10.0668
    -5.7892  -5.7892  -2.6341  -2.6341  -1.9133  -1.9133   2.2949   2.2949
     2.6099   2.6099   4.0258   4.0258   4.5127   4.5127   4.8593   4.8593
     5.4492   5.4492   5.5366   5.5366   5.7036   5.7036   5.8167   5.8167
     5.8223   5.8223   6.4984   6.4984   6.8178   6.8178   6.9252   6.9252
     7.1175   7.1175   7.1977   7.1977   7.2186   7.2186   7.4747   7.4747
     8.4108   8.4108   8.5531   8.5531   9.0700   9.0700   9.2369   9.2369
     9.4597   9.4597   9.6434   9.6434  10.6255  10.6255  10.8319  10.8319
    10.9250  10.9250  11.9642  11.9642  12.2898  12.2898  12.6374  12.6374
    12.6780  12.6780  12.9856  12.9856  13.4068  13.4068  14.1055  14.1055
    14.1534  14.1534  14.4680  14.4680

          k = 0.2444 0.5774 0.0000 ( 15114 PWs)   bands (ev):

   -27.1557 -27.1557 -27.1332 -27.1332 -27.1206 -27.1206 -27.0766 -27.0766
   -26.5968 -26.5968 -26.5582 -26.5582 -26.5472 -26.5472 -26.4857 -26.4857
   -26.4617 -26.4617 -26.3899 -26.3899 -10.9242 -10.9242 -10.0210 -10.0210
    -5.7465  -5.7465  -2.6814  -2.6814  -1.8748  -1.8748   2.3321   2.3321
     2.4076   2.4076   3.9946   3.9946   4.4833   4.4833   4.9644   4.9644
     5.4533   5.4533   5.6227   5.6227   5.6571   5.6571   5.7724   5.7724
     5.7777   5.7777   6.5643   6.5643   6.8129   6.8129   6.8867   6.8867
     7.0920   7.0920   7.2744   7.2744   7.2950   7.2950   7.5298   7.5298
     8.5412   8.5412   8.6748   8.6748   9.0168   9.0168   9.2002   9.2002
     9.4104   9.4104   9.6155   9.6155  10.6677  10.6677  10.8486  10.8486
    10.9616  10.9616  11.9410  11.9410  12.2725  12.2725  12.5543  12.5543
    12.6490  12.6490  12.9525  12.9525  13.4506  13.4506  14.1800  14.1801
    14.1922  14.1922  14.5818  14.5819

          k = 0.2333 0.5774 0.0000 ( 15104 PWs)   bands (ev):

   -27.1554 -27.1554 -27.1335 -27.1335 -27.1195 -27.1195 -27.0765 -27.0765
   -26.5964 -26.5964 -26.5582 -26.5582 -26.5472 -26.5472 -26.4861 -26.4861
   -26.4597 -26.4597 -26.3899 -26.3899 -10.9716 -10.9716  -9.9782  -9.9782
    -5.6981  -5.6981  -2.7272  -2.7272  -1.8392  -1.8392   2.1968   2.1968
     2.3836   2.3836   3.9633   3.9633   4.4526   4.4526   5.0708   5.0708
     5.4111   5.4111   5.6096   5.6096   5.7205   5.7205   5.7266   5.7266
     5.7803   5.7803   6.6210   6.6210   6.7871   6.7871   6.8528   6.8528
     7.0512   7.0512   7.3203   7.3203   7.4135   7.4135   7.6339   7.6339
     8.6559   8.6559   8.7886   8.7886   8.9806   8.9806   9.1706   9.1706
     9.3626   9.3626   9.5943   9.5943  10.5660  10.5660  10.9124  10.9124
    11.0937  11.0937  11.9140  11.9140  12.2500  12.2500  12.4793  12.4793
    12.6194  12.6194  12.9165  12.9165  13.4765  13.4765  14.1676  14.1677
    14.2802  14.2802  14.7007  14.7012

          k = 0.2222 0.5774 0.0000 ( 15108 PWs)   bands (ev):

   -27.1552 -27.1552 -27.1340 -27.1340 -27.1189 -27.1189 -27.0771 -27.0771
   -26.5965 -26.5965 -26.5586 -26.5586 -26.5472 -26.5472 -26.4870 -26.4870
   -26.4584 -26.4584 -26.3908 -26.3908 -11.0168 -11.0168  -9.9385  -9.9385
    -5.6441  -5.6441  -2.7715  -2.7715  -1.8065  -1.8065   1.9945   1.9945
     2.4326   2.4326   3.9332   3.9332   4.4213   4.4213   5.1753   5.1753
     5.3679   5.3679   5.5665   5.5665   5.6835   5.6835   5.6885   5.6885
     5.9183   5.9183   6.6579   6.6579   6.7536   6.7536   6.8293   6.8293
     7.0088   7.0088   7.3600   7.3600   7.5476   7.5476   7.7655   7.7655
     8.7203   8.7203   8.8825   8.8825   8.9953   8.9953   9.1558   9.1558
     9.3163   9.3163   9.5848   9.5848  10.4308  10.4308  11.0019  11.0019
    11.2272  11.2272  11.8883  11.8883  12.2251  12.2251  12.4132  12.4132
    12.5894  12.5894  12.8799  12.8799  13.4594  13.4594  14.1444  14.1445
    14.3786  14.3788  14.6082  14.6083

          k = 0.2111 0.5774 0.0000 ( 15112 PWs)   bands (ev):

   -27.1550 -27.1550 -27.1349 -27.1349 -27.1185 -27.1185 -27.0773 -27.0773
   -26.5964 -26.5964 -26.5592 -26.5592 -26.5474 -26.5474 -26.4876 -26.4876
   -26.4572 -26.4572 -26.3917 -26.3917 -11.0598 -11.0598  -9.9018  -9.9018
    -5.5848  -5.5848  -2.8145  -2.8145  -1.7765  -1.7765   1.7938   1.7938
     2.4866   2.4866   3.9053   3.9053   4.3901   4.3901   5.2713   5.2713
     5.3285   5.3285   5.5275   5.5275   5.6453   5.6453   5.6498   5.6498
     6.0675   6.0675   6.6670   6.6670   6.7182   6.7182   6.8205   6.8205
     6.9672   6.9672   7.4117   7.4117   7.6891   7.6891   7.9094   7.9094
     8.7108   8.7108   8.9367   8.9367   9.0835   9.0835   9.1679   9.1679
     9.2719   9.2719   9.5951   9.5951  10.2962  10.2962  11.0770  11.0770
    11.3601  11.3601  11.8715  11.8715  12.2001  12.2001  12.3563  12.3563
    12.5596  12.5596  12.8448  12.8448  13.3818  13.3818  14.1484  14.1484
    14.4219  14.4219  14.4828  14.4828

          k = 0.2000 0.5774 0.0000 ( 15104 PWs)   bands (ev):

   -27.1547 -27.1547 -27.1352 -27.1352 -27.1176 -27.1176 -27.0772 -27.0772
   -26.5958 -26.5958 -26.5597 -26.5597 -26.5474 -26.5474 -26.4879 -26.4879
   -26.4552 -26.4552 -26.3921 -26.3921 -11.1006 -11.1006  -9.8680  -9.8680
    -5.5204  -5.5204  -2.8562  -2.8562  -1.7493  -1.7493   1.5959   1.5959
     2.5443   2.5443   3.8806   3.8806   4.3593   4.3593   5.2811   5.2811
     5.3593   5.3593   5.4982   5.4982   5.6106   5.6106   5.6181   5.6181
     6.2196   6.2196   6.6535   6.6535   6.6837   6.6837   6.8206   6.8206
     6.9271   6.9271   7.4815   7.4815   7.8343   7.8343   8.0597   8.0597
     8.6645   8.6645   8.9464   8.9464   9.2011   9.2011   9.2039   9.2039
     9.2341   9.2341   9.6361   9.6361  10.1684  10.1684  11.1236  11.1236
    11.4899  11.4899  11.8726  11.8726  12.1772  12.1772  12.3091  12.3091
    12.5310  12.5310  12.8136  12.8136  13.2530  13.2530  14.1252  14.1252
    14.3025  14.3025  14.5892  14.5893

          k = 0.1889 0.5774 0.0000 ( 15100 PWs)   bands (ev):

   -27.1546 -27.1546 -27.1355 -27.1355 -27.1166 -27.1166 -27.0773 -27.0773
   -26.5956 -26.5956 -26.5601 -26.5601 -26.5478 -26.5478 -26.4884 -26.4884
   -26.4531 -26.4531 -26.3927 -26.3927 -11.1391 -11.1391  -9.8372  -9.8372
    -5.4512  -5.4512  -2.8965  -2.8965  -1.7246  -1.7246   1.4014   1.4014
     2.6050   2.6050   3.8596   3.8596   4.3293   4.3293   5.2442   5.2442
     5.3890   5.3890   5.4910   5.4910   5.5743   5.5743   5.6168   5.6168
     6.3723   6.3723   6.6307   6.6307   6.6518   6.6518   6.8195   6.8195
     6.8890   6.8890   7.5688   7.5688   7.9805   7.9805   8.2138   8.2138
     8.6070   8.6070   8.9325   8.9325   9.1861   9.1861   9.2296   9.2296
     9.3458   9.3458   9.7139   9.7139  10.0504  10.0504  11.1342  11.1342
    11.6119  11.6119  11.8958  11.8958  12.1590  12.1590  12.2729  12.2729
    12.5042  12.5042  12.7889  12.7889  13.0952  13.0952  13.9662  13.9662
    14.3480  14.3480  14.6895  14.6896

          k = 0.1778 0.5774 0.0000 ( 15092 PWs)   bands (ev):

   -27.1541 -27.1541 -27.1356 -27.1356 -27.1158 -27.1158 -27.0775 -27.0775
   -26.5950 -26.5950 -26.5603 -26.5603 -26.5475 -26.5475 -26.4884 -26.4884
   -26.4515 -26.4515 -26.3936 -26.3936 -11.1755 -11.1755  -9.8091  -9.8091
    -5.3775  -5.3775  -2.9357  -2.9357  -1.7024  -1.7024   1.2108   1.2108
     2.6679   2.6679   3.8433   3.8433   4.3003   4.3003   5.2083   5.2083
     5.3711   5.3711   5.4819   5.4819   5.5394   5.5394   5.6640   5.6640
     6.5151   6.5151   6.6147   6.6147   6.6245   6.6245   6.8148   6.8148
     6.8531   6.8531   7.6698   7.6698   8.1235   8.1235   8.3702   8.3702
     8.5496   8.5496   8.9109   8.9109   9.1475   9.1475   9.2429   9.2429
     9.4796   9.4796   9.8231   9.8231   9.9469   9.9469  11.1111  11.1111
    11.7187  11.7187  11.9345  11.9345  12.1485  12.1485  12.2504  12.2504
    12.4795  12.4795  12.7744  12.7744  12.9272  12.9272  13.7740  13.7740
    14.4449  14.4449  14.6695  14.6695

          k = 0.1667 0.5774 0.0000 ( 15084 PWs)   bands (ev):

   -27.1538 -27.1538 -27.1355 -27.1355 -27.1150 -27.1150 -27.0775 -27.0775
   -26.5944 -26.5944 -26.5606 -26.5606 -26.5475 -26.5475 -26.4884 -26.4884
   -26.4496 -26.4496 -26.3945 -26.3945 -11.2098 -11.2098  -9.7837  -9.7837
    -5.2997  -5.2997  -2.9737  -2.9737  -1.6826  -1.6826   1.0247   1.0247
     2.7317   2.7317   3.8325   3.8325   4.2724   4.2724   5.1743   5.1743
     5.3402   5.3402   5.4585   5.4585   5.5064   5.5064   5.7333   5.7333
     6.5540   6.5540   6.6026   6.6026   6.6969   6.6969   6.8108   6.8108
     6.8222   6.8222   7.7807   7.7807   8.2495   8.2495   8.5084   8.5084
     8.5270   8.5270   8.8883   8.8883   9.1109   9.1109   9.2469   9.2469
     9.5956   9.5956   9.8714   9.8714   9.9534   9.9534  11.0638  11.0638
    11.7988  11.7988  11.9718  11.9718  12.1481  12.1481  12.2461  12.2461
    12.4522  12.4522  12.7682  12.7682  12.7783  12.7783  13.5796  13.5796
    14.4659  14.4659  14.5448  14.5448

          k = 0.1556 0.5774 0.0000 ( 15092 PWs)   bands (ev):

   -27.1540 -27.1540 -27.1362 -27.1362 -27.1147 -27.1147 -27.0782 -27.0782
   -26.5943 -26.5943 -26.5617 -26.5617 -26.5480 -26.5480 -26.4890 -26.4890
   -26.4480 -26.4480 -26.3958 -26.3958 -11.2418 -11.2418  -9.7609  -9.7609
    -5.2184  -5.2184  -3.0107  -3.0107  -1.6650  -1.6650   0.8438   0.8438
     2.7950   2.7950   3.8282   3.8282   4.2459   4.2459   5.1423   5.1423
     5.3068   5.3068   5.4312   5.4312   5.4752   5.4752   5.8000   5.8000
     6.5316   6.5316   6.5896   6.5896   6.7646   6.7646   6.7862   6.7862
     6.8891   6.8891   7.8978   7.8978   8.3072   8.3072   8.5362   8.5362
     8.6782   8.6782   8.8711   8.8711   9.0770   9.0770   9.2490   9.2490
     9.6403   9.6403   9.8741   9.8741  10.0966  10.0966  11.0039  11.0039
    11.8423  11.8423  11.9922  11.9922  12.1494  12.1494  12.2603  12.2603
    12.3974  12.3974  12.6723  12.6723  12.7991  12.7991  13.3889  13.3889
    14.2445  14.2445  14.3819  14.3819

          k = 0.1444 0.5774 0.0000 ( 15086 PWs)   bands (ev):

   -27.1539 -27.1539 -27.1361 -27.1361 -27.1139 -27.1139 -27.0784 -27.0784
   -26.5936 -26.5936 -26.5623 -26.5623 -26.5483 -26.5483 -26.4892 -26.4892
   -26.4460 -26.4460 -26.3966 -26.3966 -11.2716 -11.2716  -9.7404  -9.7404
    -5.1340  -5.1340  -3.0468  -3.0468  -1.6493  -1.6493   0.6687   0.6687
     2.8565   2.8565   3.8318   3.8318   4.2209   4.2209   5.1126   5.1126
     5.2733   5.2733   5.4038   5.4038   5.4461   5.4461   5.8543   5.8543
     6.5057   6.5057   6.5869   6.5869   6.7559   6.7559   6.7601   6.7601
     7.0417   7.0417   8.0185   8.0185   8.2819   8.2819   8.6475   8.6475
     8.7871   8.7871   8.8943   8.8943   9.0472   9.0472   9.2570   9.2570
     9.6003   9.6003   9.9632   9.9632  10.2482  10.2482  10.9435  10.9435
    11.8490  11.8490  11.9940  11.9940  12.1207  12.1207  12.2817  12.2817
    12.3049  12.3049  12.6735  12.6735  12.8515  12.8515  13.2077  13.2077
    14.0224  14.0224  14.1538  14.1538

          k = 0.1333 0.5774 0.0000 ( 15092 PWs)   bands (ev):

   -27.1541 -27.1541 -27.1365 -27.1365 -27.1133 -27.1133 -27.0792 -27.0792
   -26.5935 -26.5935 -26.5632 -26.5632 -26.5485 -26.5485 -26.4899 -26.4899
   -26.4444 -26.4444 -26.3981 -26.3981 -11.2992 -11.2992  -9.7222  -9.7222
    -5.0471  -5.0471  -3.0821  -3.0821  -1.6356  -1.6356   0.5001   0.5001
     2.9145   2.9145   3.8443   3.8443   4.1975   4.1975   5.0849   5.0849
     5.2400   5.2400   5.3775   5.3775   5.4191   5.4191   5.8908   5.8908
     6.4806   6.4806   6.5954   6.5954   6.7310   6.7310   6.7447   6.7447
     7.2051   7.2051   8.1393   8.1393   8.2349   8.2349   8.7765   8.7765
     8.7977   8.7977   9.0059   9.0059   9.0258   9.0258   9.2836   9.2836
     9.5412   9.5412  10.0650  10.0650  10.4055  10.4055  10.8961  10.8961
    11.8158  11.8158  11.9846  11.9846  12.0343  12.0343  12.2354  12.2354
    12.2988  12.2988  12.7283  12.7283  12.9346  12.9346  13.0524  13.0524
    13.8020  13.8020  13.9267  13.9267

          k = 0.1222 0.5774 0.0000 ( 15086 PWs)   bands (ev):

   -27.1538 -27.1538 -27.1365 -27.1365 -27.1126 -27.1126 -27.0794 -27.0794
   -26.5927 -26.5927 -26.5637 -26.5637 -26.5488 -26.5488 -26.4899 -26.4899
   -26.4424 -26.4424 -26.3991 -26.3991 -11.3246 -11.3246  -9.7061  -9.7061
    -4.9586  -4.9586  -3.1169  -3.1169  -1.6235  -1.6235   0.3390   0.3390
     2.9674   2.9674   3.8672   3.8672   4.1757   4.1757   5.0595   5.0595
     5.2071   5.2071   5.3529   5.3529   5.3941   5.3941   5.9078   5.9078
     6.4568   6.4568   6.6123   6.6123   6.7104   6.7104   6.7289   6.7289
     7.3720   7.3720   8.1892   8.1892   8.2573   8.2573   8.7826   8.7826
     8.8844   8.8844   9.0337   9.0337   9.1066   9.1066   9.3541   9.3541
     9.4851   9.4851  10.1448  10.1448  10.5668  10.5668  10.8790  10.8790
    11.7171  11.7171  11.9518  11.9518  11.9717  11.9717  12.1866  12.1866
    12.3047  12.3047  12.7324  12.7324  12.9970  12.9970  13.0437  13.0437
    13.5848  13.5848  13.7020  13.7020

          k = 0.1111 0.5774 0.0000 ( 15074 PWs)   bands (ev):

   -27.1534 -27.1534 -27.1364 -27.1364 -27.1117 -27.1117 -27.0792 -27.0792
   -26.5919 -26.5919 -26.5640 -26.5640 -26.5488 -26.5488 -26.4898 -26.4898
   -26.4403 -26.4403 -26.3996 -26.3996 -11.3478 -11.3478  -9.6919  -9.6919
    -4.8691  -4.8691  -3.1511  -3.1511  -1.6130  -1.6130   0.1861   0.1861
     3.0137   3.0137   3.9012   3.9012   4.1558   4.1558   5.0362   5.0362
     5.1742   5.1742   5.3303   5.3303   5.3712   5.3712   5.9065   5.9065
     6.4349   6.4349   6.6278   6.6278   6.7007   6.7007   6.7137   6.7137
     7.5409   7.5409   8.1530   8.1530   8.3669   8.3669   8.7702   8.7702
     8.9128   8.9128   9.1126   9.1126   9.1671   9.1671   9.4389   9.4389
     9.4801   9.4801  10.1870  10.1870  10.7310  10.7310  10.9084  10.9084
    11.5591  11.5591  11.9108  11.9108  11.9561  11.9561  12.1279  12.1279
    12.3019  12.3019  12.6312  12.6312  13.0852  13.0852  13.1687  13.1687
    13.3754  13.3754  13.4809  13.4809

          k = 0.1000 0.5774 0.0000 ( 15062 PWs)   bands (ev):

   -27.1531 -27.1531 -27.1361 -27.1361 -27.1111 -27.1111 -27.0789 -27.0789
   -26.5911 -26.5911 -26.5645 -26.5645 -26.5488 -26.5488 -26.4891 -26.4891
   -26.4380 -26.4380 -26.4005 -26.4005 -11.3688 -11.3688  -9.6795  -9.6795
    -4.7795  -4.7795  -3.1849  -3.1849  -1.6040  -1.6040   0.0425   0.0425
     3.0527   3.0527   3.9467   3.9467   4.1377   4.1377   5.0151   5.0151
     5.1409   5.1409   5.3096   5.3096   5.3505   5.3505   5.8900   5.8900
     6.4149   6.4149   6.6279   6.6279   6.6963   6.6963   6.7146   6.7146
     7.7112   7.7112   8.1302   8.1302   8.4626   8.4626   8.7623   8.7623
     8.9021   8.9021   9.2066   9.2066   9.2142   9.2142   9.4127   9.4127
     9.6368   9.6368  10.1953  10.1953  10.8965  10.8965  10.9856  10.9856
    11.3788  11.3788  11.8863  11.8863  11.9416  11.9416  12.0458  12.0458
    12.2930  12.2930  12.5208  12.5208  13.1466  13.1466  13.2064  13.2064
    13.2794  13.2794  13.3315  13.3315

          k = 0.0889 0.5774 0.0000 ( 15052 PWs)   bands (ev):

   -27.1531 -27.1531 -27.1360 -27.1360 -27.1105 -27.1105 -27.0786 -27.0786
   -26.5904 -26.5904 -26.5651 -26.5651 -26.5490 -26.5490 -26.4888 -26.4888
   -26.4360 -26.4360 -26.4008 -26.4008 -11.3876 -11.3876  -9.6689  -9.6689
    -4.6911  -4.6911  -3.2185  -3.2185  -1.5963  -1.5963  -0.0910  -0.0910
     3.0842   3.0842   4.0029   4.0029   4.1217   4.1217   4.9962   4.9962
     5.1066   5.1066   5.2910   5.2910   5.3320   5.3320   5.8622   5.8622
     6.3968   6.3968   6.6163   6.6163   6.6829   6.6829   6.7378   6.7378
     7.8823   7.8823   8.1237   8.1237   8.5368   8.5368   8.7620   8.7620
     8.8851   8.8851   9.2531   9.2531   9.2649   9.2649   9.4288   9.4288
     9.8067   9.8067  10.1939  10.1939  11.0601  11.0601  11.0972  11.0972
    11.1953  11.1953  11.8656  11.8656  11.9283  11.9283  11.9386  11.9386
    12.2795  12.2795  12.4351  12.4351  12.9491  12.9491  13.0405  13.0405
    13.3856  13.3856  13.4797  13.4797

          k = 0.0778 0.5774 0.0000 ( 15060 PWs)   bands (ev):

   -27.1534 -27.1534 -27.1366 -27.1366 -27.1102 -27.1102 -27.0791 -27.0791
   -26.5903 -26.5903 -26.5659 -26.5659 -26.5495 -26.5495 -26.4892 -26.4892
   -26.4346 -26.4346 -26.4026 -26.4026 -11.4041 -11.4041  -9.6598  -9.6598
    -4.6049  -4.6049  -3.2516  -3.2516  -1.5897  -1.5897  -0.2131  -0.2131
     3.1087   3.1087   4.0669   4.0669   4.1095   4.1095   4.9794   4.9794
     5.0704   5.0704   5.2746   5.2746   5.3156   5.3156   5.8268   5.8268
     6.3808   6.3808   6.6021   6.6021   6.6703   6.6703   6.7611   6.7611
     8.0531   8.0531   8.1348   8.1348   8.5841   8.5841   8.7714   8.7714
     8.8679   8.8679   9.2445   9.2445   9.3315   9.3315   9.4688   9.4688
     9.9829   9.9829  10.2125  10.2125  11.0052  11.0052  11.2254  11.2254
    11.2298  11.2298  11.7913  11.7913  11.8658  11.8658  11.9198  11.9198
    12.2604  12.2604  12.3737  12.3737  12.7568  12.7568  12.8331  12.8331
    13.5478  13.5478  13.6403  13.6403

          k = 0.0667 0.5774 0.0000 ( 15060 PWs)   bands (ev):

   -27.1533 -27.1533 -27.1368 -27.1368 -27.1099 -27.1099 -27.0794 -27.0794
   -26.5900 -26.5900 -26.5664 -26.5664 -26.5497 -26.5497 -26.4894 -26.4894
   -26.4332 -26.4332 -26.4036 -26.4036 -11.4185 -11.4185  -9.6521  -9.6521
    -4.5226  -4.5226  -3.2842  -3.2842  -1.5842  -1.5842  -0.3227  -0.3227
     3.1270   3.1270   4.0905   4.0905   4.1478   4.1478   4.9647   4.9647
     5.0314   5.0314   5.2603   5.2603   5.3013   5.3013   5.7873   5.7873
     6.3669   6.3669   6.5883   6.5883   6.6590   6.6590   6.7795   6.7795
     8.1617   8.1617   8.2239   8.2239   8.6076   8.6076   8.7873   8.7873
     8.8524   8.8524   9.2186   9.2186   9.4118   9.4118   9.4849   9.4849
    10.1626  10.1626  10.2725  10.2725  10.8280  10.8280  11.3604  11.3604
    11.3756  11.3756  11.6591  11.6591  11.8545  11.8545  11.9158  11.9158
    12.2297  12.2297  12.3234  12.3234  12.5841  12.5841  12.6375  12.6375
    13.7165  13.7165  13.8060  13.8060

          k = 0.0556 0.5774 0.0000 ( 15070 PWs)   bands (ev):

   -27.1535 -27.1535 -27.1372 -27.1372 -27.1097 -27.1097 -27.0806 -27.0806
   -26.5904 -26.5904 -26.5670 -26.5670 -26.5498 -26.5498 -26.4900 -26.4900
   -26.4320 -26.4320 -26.4052 -26.4052 -11.4307 -11.4307  -9.6458  -9.6458
    -4.4459  -4.4459  -3.3158  -3.3158  -1.5797  -1.5797  -0.4186  -0.4186
     3.1404   3.1404   4.0813   4.0813   4.2268   4.2268   4.9514   4.9514
     4.9890   4.9890   5.2482   5.2482   5.2893   5.2893   5.7469   5.7469
     6.3551   6.3551   6.5761   6.5761   6.6493   6.6493   6.7920   6.7920
     8.2042   8.2042   8.3900   8.3900   8.6176   8.6176   8.8033   8.8033
     8.8390   8.8390   9.1877   9.1877   9.4552   9.4552   9.5125   9.5125
    10.3417  10.3417  10.3750  10.3750  10.6645  10.6645  11.4184  11.4184
    11.4833  11.4833  11.6119  11.6119  11.8559  11.8559  11.9217  11.9217
    12.1708  12.1708  12.2535  12.2535  12.4554  12.4555  12.4809  12.4809
    13.6502  13.6502  13.6975  13.6975

          k = 0.0444 0.5774 0.0000 ( 15068 PWs)   bands (ev):

   -27.1532 -27.1532 -27.1378 -27.1378 -27.1094 -27.1094 -27.0806 -27.0806
   -26.5903 -26.5903 -26.5670 -26.5670 -26.5498 -26.5498 -26.4902 -26.4902
   -26.4306 -26.4306 -26.4061 -26.4061 -11.4406 -11.4406  -9.6407  -9.6407
    -4.3771  -4.3771  -3.3454  -3.3454  -1.5761  -1.5761  -0.4989  -0.4989
     3.1499   3.1499   4.0728   4.0728   4.3108   4.3108   4.9314   4.9314
     4.9504   4.9504   5.2382   5.2382   5.2794   5.2794   5.7089   5.7089
     6.3454   6.3454   6.5658   6.5658   6.6412   6.6412   6.7993   6.7993
     8.2571   8.2571   8.5433   8.5433   8.6290   8.6290   8.8155   8.8155
     8.8282   8.8282   9.1542   9.1542   9.4197   9.4197   9.5967   9.5967
    10.4614  10.4614  10.5083  10.5083  10.5817  10.5817  11.2991  11.2991
    11.5671  11.5671  11.6958  11.6958  11.8824  11.8824  11.9424  11.9424
    12.0797  12.0797  12.1192  12.1192  12.3947  12.3947  12.4112  12.4112
    13.4506  13.4506  13.4984  13.4984

          k = 0.0333 0.5774 0.0000 ( 15068 PWs)   bands (ev):

   -27.1529 -27.1529 -27.1376 -27.1376 -27.1090 -27.1090 -27.0812 -27.0812
   -26.5902 -26.5902 -26.5674 -26.5674 -26.5494 -26.5494 -26.4901 -26.4901
   -26.4296 -26.4296 -26.4076 -26.4076 -11.4483 -11.4483  -9.6369  -9.6369
    -4.3188  -4.3188  -3.3717  -3.3717  -1.5734  -1.5734  -0.5631  -0.5631
     3.1564   3.1564   4.0661   4.0661   4.3964   4.3964   4.8821   4.8821
     4.9376   4.9376   5.2305   5.2305   5.2717   5.2717   5.6760   5.6760
     6.3379   6.3379   6.5577   6.5577   6.6349   6.6349   6.8029   6.8029
     8.3146   8.3146   8.6029   8.6029   8.7208   8.7208   8.8195   8.8195
     8.8252   8.8252   9.1185   9.1185   9.3780   9.3780   9.6624   9.6624
    10.3794  10.3794  10.6601  10.6601  10.7362  10.7362  11.1619  11.1619
    11.5743  11.5743  11.7397  11.7397  11.9108  11.9108  11.9317  11.9317
    11.9897  11.9897  12.0502  12.0502  12.3911  12.3911  12.4124  12.4124
    13.2559  13.2559  13.3040  13.3040

          k = 0.0222 0.5774 0.0000 ( 15072 PWs)   bands (ev):

   -27.1528 -27.1528 -27.1380 -27.1380 -27.1088 -27.1088 -27.0817 -27.0817
   -26.5904 -26.5904 -26.5677 -26.5677 -26.5493 -26.5493 -26.4904 -26.4904
   -26.4288 -26.4288 -26.4087 -26.4087 -11.4539 -11.4539  -9.6342  -9.6342
    -4.2738  -4.2738  -3.3929  -3.3929  -1.5714  -1.5714  -0.6098  -0.6098
     3.1605   3.1605   4.0612   4.0612   4.4804   4.4804   4.8232   4.8232
     4.9313   4.9313   5.2250   5.2250   5.2662   5.2662   5.6507   5.6507
     6.3325   6.3325   6.5518   6.5518   6.6304   6.6304   6.8043   6.8043
     8.3688   8.3688   8.6062   8.6062   8.8117   8.8117   8.8246   8.8246
     8.8555   8.8555   9.0864   9.0864   9.3439   9.3439   9.6860   9.6860
    10.3219  10.3219  10.8214  10.8214  10.9088  10.9088  11.0510  11.0510
    11.4916  11.4916  11.6915  11.6915  11.8003  11.8003  11.8873  11.8873
    12.0506  12.0506  12.1035  12.1035  12.4378  12.4378  12.4651  12.4651
    13.0688  13.0688  13.1172  13.1172

          k = 0.0111 0.5774 0.0000 ( 15070 PWs)   bands (ev):

   -27.1530 -27.1530 -27.1381 -27.1381 -27.1084 -27.1084 -27.0816 -27.0816
   -26.5904 -26.5904 -26.5677 -26.5677 -26.5495 -26.5495 -26.4904 -26.4904
   -26.4279 -26.4279 -26.4090 -26.4090 -11.4572 -11.4572  -9.6326  -9.6326
    -4.2453  -4.2453  -3.4069  -3.4069  -1.5702  -1.5702  -0.6381  -0.6381
     3.1628   3.1628   4.0583   4.0583   4.5561   4.5561   4.7630   4.7630
     4.9278   4.9278   5.2217   5.2217   5.2629   5.2629   5.6348   5.6348
     6.3293   6.3293   6.5483   6.5483   6.6276   6.6276   6.8047   6.8047
     8.4093   8.4093   8.6058   8.6058   8.8103   8.8103   8.8296   8.8296
     8.9357   8.9357   9.0743   9.0743   9.3223   9.3223   9.6700   9.6700
    10.3133  10.3133  10.9210  10.9210  10.9827  10.9827  11.1367  11.1367
    11.3578  11.3578  11.5176  11.5176  11.7837  11.7837  11.8675  11.8675
    12.0979  12.0979  12.1424  12.1424  12.5331  12.5331  12.5621  12.5621
    12.8965  12.8965  12.9471  12.9471

          k = 0.0000 0.5774 0.0000 ( 15066 PWs)   bands (ev):

   -27.1529 -27.1529 -27.1378 -27.1378 -27.1082 -27.1082 -27.0816 -27.0816
   -26.5902 -26.5902 -26.5676 -26.5676 -26.5494 -26.5494 -26.4903 -26.4903
   -26.4277 -26.4277 -26.4088 -26.4088 -11.4583 -11.4583  -9.6321  -9.6321
    -4.2355  -4.2355  -3.4118  -3.4118  -1.5698  -1.5698  -0.6477  -0.6477
     3.1635   3.1635   4.0573   4.0573   4.5967   4.5967   4.7278   4.7278
     4.9266   4.9266   5.2205   5.2205   5.2618   5.2618   5.6293   5.6293
     6.3282   6.3282   6.5471   6.5471   6.6267   6.6267   6.8047   6.8047
     8.4246   8.4246   8.6054   8.6054   8.8095   8.8095   8.8305   8.8305
     8.9574   8.9574   9.0812   9.0812   9.3149   9.3149   9.6552   9.6552
    10.3186  10.3186  10.8903  10.8903  11.0900  11.0900  11.2567  11.2567
    11.3068  11.3068  11.3434  11.3434  11.7822  11.7822  11.8625  11.8625
    12.1123  12.1123  12.1541  12.1541  12.6144  12.6144  12.6381  12.6381
    12.7923  12.7923  12.8491  12.8491

     highest occupied, lowest unoccupied level (ev):    -2.2734   -2.2488

!    total energy              =    -357.08793368 Ry
     estimated scf accuracy    <          9.4E-10 Ry

     The total energy is the sum of the following terms:
     one-electron contribution =   -1155.47725927 Ry
     hartree contribution      =     584.96511530 Ry
     xc contribution           =     -87.05657981 Ry
     ewald contribution        =     300.48079010 Ry

     convergence has been achieved in   7 iterations

     Writing all to output data dir ./outdir/Germanene.save/

     init_run     :    299.00s CPU     54.00s WALL (       1 calls)
     electrons    :   8737.80s CPU   1361.64s WALL (       1 calls)

     Called by init_run:
     wfcinit      :    294.96s CPU     52.50s WALL (       1 calls)
     potinit      :      1.96s CPU      0.61s WALL (       1 calls)
     hinit0       :      1.92s CPU      0.71s WALL (       1 calls)

     Called by electrons:
     c_bands      :   7407.71s CPU   1138.45s WALL (       8 calls)
     sum_band     :   1322.36s CPU    221.66s WALL (       8 calls)
     v_of_rho     :      4.50s CPU      0.79s WALL (       8 calls)
     mix_rho      :      1.57s CPU      0.45s WALL (       8 calls)

     Called by c_bands:
     init_us_2    :     22.60s CPU      4.78s WALL (    1037 calls)
     init_us_2:cp :     22.59s CPU      4.78s WALL (    1037 calls)
     cegterg      :   7244.56s CPU   1113.97s WALL (     488 calls)

     Called by *egterg:
     cdiaghg      :    103.68s CPU     22.94s WALL (    2409 calls)
     h_psi        :   6353.86s CPU    985.50s WALL (    2531 calls)
     g_psi        :     26.74s CPU      3.27s WALL (    1982 calls)

     Called by h_psi:
     h_psi:calbec :    152.13s CPU     14.36s WALL (    2531 calls)
     vloc_psi     :   6033.45s CPU    948.62s WALL (    2531 calls)
     add_vuspsi   :    112.15s CPU     14.63s WALL (    2531 calls)

     General routines
     calbec       :    152.05s CPU     14.35s WALL (    2531 calls)
     fft          :      3.50s CPU      0.87s WALL (     158 calls)
     ffts         :      1.07s CPU      0.46s WALL (      64 calls)
     fftw         :   4768.33s CPU    756.64s WALL (  637384 calls)
     interpolate  :      1.95s CPU      0.61s WALL (      32 calls)

     Parallel routines

     PWSCF        :      2h30m CPU  23m37.61s WALL


   This run was terminated on:  20: 6:11  24Aug2022            

=------------------------------------------------------------------------------=
   JOB DONE.
=------------------------------------------------------------------------------=
