
     Program PWSCF v.7.0 starts on 24Aug2022 at 19:34:56 
        Git branch: HEAD
        Last git commit: bcbb9787c58f17a467653707917172ffc4053dd9-dirty
        Last git commit date: Tue Dec 21 10:27:04 2021 +0000
        Last git commit subject: Merge branch pw2gt_cmplx into develop         

     This program is part of the open-source Quantum ESPRESSO suite
     for quantum simulation of materials; please cite
         "P. Giannozzi et al., J. Phys.:Condens. Matter 21 395502 (2009);
         "P. Giannozzi et al., J. Phys.:Condens. Matter 29 465901 (2017);
         "P. Giannozzi et al., J. Chem. Phys. 152 154105 (2020);
          URL http://www.quantum-espresso.org", 
     in publications or presentations arising from this work. More details at
     http://www.quantum-espresso.org/quote

     Parallel version (MPI & OpenMP), running on       6 processor cores
     Number of MPI processes:                 1
     Threads/MPI process:                     6

     MPI processes distributed on     1 nodes
     10330 MiB available memory on the printing compute node when the environment starts

     Reading input from scf.in

     Current dimensions of program PWSCF are:
     Max number of different atomic species (ntypx) = 10
     Max number of k-points (npk) =  40000
     Max angular momentum in pseudopotentials (lmaxx) =  4

     Subspace diagonalization in iterative solution of the eigenvalue problem:
     a serial algorithm will be used


     G-vector sticks info
     --------------------
     sticks:   dense  smooth     PW     G-vecs:    dense   smooth      PW
     Sum        2053     967    283               363965   120829   18561

     Using Slab Decomposition



     bravais-lattice index     =            4
     lattice parameter (alat)  =       7.6723  a.u.
     unit-cell volume          =    1926.6783 (a.u.)^3
     number of atoms/cell      =            2
     number of atomic types    =            1
     number of electrons       =        28.00
     number of Kohn-Sham states=          100
     kinetic-energy cutoff     =      60.0000  Ry
     charge density cutoff     =     500.0000  Ry
     scf convergence threshold =      1.0E-08
     mixing beta               =       0.7000
     number of iterations used =            8  plain     mixing
     Exchange-correlation= PBE
                           (   1   4   3   4   0   0   0)
     Non magnetic calculation with spin-orbit


     celldm(1)=   7.672288  celldm(2)=   0.000000  celldm(3)=   4.926108
     celldm(4)=   0.000000  celldm(5)=   0.000000  celldm(6)=   0.000000

     crystal axes: (cart. coord. in units of alat)
               a(1) = (   1.000000   0.000000   0.000000 )  
               a(2) = (  -0.500000   0.866025   0.000000 )  
               a(3) = (   0.000000   0.000000   4.926108 )  

     reciprocal axes: (cart. coord. in units 2 pi/alat)
               b(1) = (  1.000000  0.577350 -0.000000 )  
               b(2) = (  0.000000  1.154701  0.000000 )  
               b(3) = (  0.000000 -0.000000  0.203000 )  


     PseudoPot. # 1 for Ge read from file:
     ../../pseudos/ONCVPSP/abinit/Ge_ONCV_PBE_fr.upf
     MD5 check sum: 3865ee7dd5ea47d44456334f1e599122
     Pseudo is Norm-conserving + core correction, Zval = 14.0
     Generated using ONCVPSP code by D. R. Hamann
     Using radial grid of 1578 points, 10 beta functions with: 
                l(1) =   0
                l(2) =   0
                l(3) =   1
                l(4) =   1
                l(5) =   1
                l(6) =   1
                l(7) =   2
                l(8) =   2
                l(9) =   2
               l(10) =   2

     atomic species   valence    mass     pseudopotential
        Ge            14.00    72.63000     Ge( 1.00)

     12 Sym. Ops., with inversion, found



   Cartesian axes

     site n.     atom                  positions (alat units)
         1           Ge  tau(   1) = (  -0.0000000   0.5773503  -0.0848530  )
         2           Ge  tau(   2) = (   0.5000000   0.2886751   0.0848530  )

     number of k points=    19
                       cart. coord. in units 2pi/alat
        k(    1) = (   0.0000000   0.0000000   0.0000000), wk =   0.0069444
        k(    2) = (   0.0000000   0.0962250   0.0000000), wk =   0.0416667
        k(    3) = (   0.0000000   0.1924501   0.0000000), wk =   0.0416667
        k(    4) = (   0.0000000   0.2886751   0.0000000), wk =   0.0416667
        k(    5) = (   0.0000000   0.3849002   0.0000000), wk =   0.0416667
        k(    6) = (   0.0000000   0.4811252   0.0000000), wk =   0.0416667
        k(    7) = (   0.0000000  -0.5773503   0.0000000), wk =   0.0208333
        k(    8) = (   0.0833333   0.1443376   0.0000000), wk =   0.0416667
        k(    9) = (   0.0833333   0.2405626   0.0000000), wk =   0.0833333
        k(   10) = (   0.0833333   0.3367877   0.0000000), wk =   0.0833333
        k(   11) = (   0.0833333   0.4330127   0.0000000), wk =   0.0833333
        k(   12) = (   0.0833333   0.5292377   0.0000000), wk =   0.0833333
        k(   13) = (   0.1666667   0.2886751   0.0000000), wk =   0.0416667
        k(   14) = (   0.1666667   0.3849002   0.0000000), wk =   0.0833333
        k(   15) = (   0.1666667   0.4811252   0.0000000), wk =   0.0833333
        k(   16) = (   0.1666667   0.5773503   0.0000000), wk =   0.0416667
        k(   17) = (   0.2500000   0.4330127   0.0000000), wk =   0.0416667
        k(   18) = (   0.2500000   0.5292377   0.0000000), wk =   0.0833333
        k(   19) = (   0.3333333   0.5773503   0.0000000), wk =   0.0138889

     Dense  grid:   363965 G-vectors     FFT dimensions: (  60,  60, 270)

     Smooth grid:   120829 G-vectors     FFT dimensions: (  40,  40, 192)

     Estimated max dynamical RAM per process >       1.75 GB

     Initial potential from superposition of free atoms

     starting charge      27.9983, renormalised to      28.0000

     negative rho (up, down):  4.309E-06 0.000E+00
     Starting wfcs are   36 randomized atomic wfcs +   64 random wfcs

     total cpu time spent up to now is       18.6 secs

     per-process dynamical memory:  1328.0 Mb

     Self-consistent Calculation

     iteration #  1     ecut=    60.00 Ry     beta= 0.70
     Davidson diagonalization with overlap
     ethr =  1.00E-02,  avg # of iterations =  8.3

     Threshold (ethr) on eigenvalues was too large:
     Diagonalizing with lowered threshold

     Davidson diagonalization with overlap
     ethr =  1.43E-04,  avg # of iterations =  4.3

     total cpu time spent up to now is      165.2 secs

     total energy              =    -357.08454376 Ry
     estimated scf accuracy    <       0.04017394 Ry

     iteration #  2     ecut=    60.00 Ry     beta= 0.70
     Davidson diagonalization with overlap
     ethr =  1.43E-04,  avg # of iterations =  4.1

     total cpu time spent up to now is      212.7 secs

     total energy              =    -357.08864261 Ry
     estimated scf accuracy    <       0.00131962 Ry

     iteration #  3     ecut=    60.00 Ry     beta= 0.70
     Davidson diagonalization with overlap
     c_bands:  1 eigenvalues not converged
     c_bands:  2 eigenvalues not converged
     ethr =  4.71E-06,  avg # of iterations =  9.4

     total cpu time spent up to now is      275.7 secs

     total energy              =    -357.08889024 Ry
     estimated scf accuracy    <       0.00021301 Ry

     iteration #  4     ecut=    60.00 Ry     beta= 0.70
     Davidson diagonalization with overlap
     ethr =  7.61E-07,  avg # of iterations =  2.3

     total cpu time spent up to now is      321.1 secs

     total energy              =    -357.08892947 Ry
     estimated scf accuracy    <       0.00001442 Ry

     iteration #  5     ecut=    60.00 Ry     beta= 0.70
     Davidson diagonalization with overlap
     ethr =  5.15E-08,  avg # of iterations =  2.0

     total cpu time spent up to now is      363.6 secs

     total energy              =    -357.08893109 Ry
     estimated scf accuracy    <       0.00000028 Ry

     iteration #  6     ecut=    60.00 Ry     beta= 0.70
     Davidson diagonalization with overlap
     ethr =  9.90E-10,  avg # of iterations =  2.0

     total cpu time spent up to now is      409.9 secs

     total energy              =    -357.08893117 Ry
     estimated scf accuracy    <       0.00000004 Ry

     iteration #  7     ecut=    60.00 Ry     beta= 0.70
     Davidson diagonalization with overlap
     ethr =  1.37E-10,  avg # of iterations =  2.0

     total cpu time spent up to now is      456.6 secs

     End of self-consistent calculation

          k = 0.0000 0.0000 0.0000 ( 15225 PWs)   bands (ev):

   -27.1821 -27.1821 -27.1786 -27.1786 -27.1523 -27.1523 -27.1005 -27.1005
   -26.6607 -26.6607 -26.5888 -26.5888 -26.5406 -26.5406 -26.5298 -26.5298
   -26.5058 -26.5058 -26.4417 -26.4417 -13.4852 -13.4852  -5.8182  -5.8182
    -2.8634  -2.8634  -2.6677  -2.6677  -1.8744  -1.8744   0.0168   0.0168
     1.4839   1.4839   1.6079   1.6079   1.9726   1.9726   2.1004   2.1004
     2.9270   2.9270   3.3714   3.3714   4.3844   4.3844   5.6977   5.6977
     5.8455   5.8455   6.6378   6.6378   7.7137   7.7137   7.7355   7.7355
     8.7789   8.7789   9.2724   9.2724   9.7631   9.7631   9.7666   9.7666
    10.3125  10.3125  12.4822  12.4822  12.4959  12.4959  12.5908  12.5908
    12.9322  12.9322  13.0706  13.0706  13.1818  13.1818  13.1933  13.1933
    13.7491  13.7491  14.0398  14.0399  14.1146  14.1146  14.1187  14.1189
    14.2868  14.2869  14.3268  14.3269  14.3271  14.3274  14.3458  14.3459
    14.3471  14.3474  14.4026  14.4028

          k = 0.0000 0.0962 0.0000 ( 15185 PWs)   bands (ev):

   -27.1816 -27.1816 -27.1775 -27.1775 -27.1500 -27.1500 -27.1009 -27.1009
   -26.6576 -26.6576 -26.5890 -26.5890 -26.5383 -26.5383 -26.5368 -26.5368
   -26.4965 -26.4965 -26.4410 -26.4410 -13.4104 -13.4104  -5.8862  -5.8862
    -3.6262  -3.6262  -2.9145  -2.9145  -1.0010  -1.0010   0.0499   0.0499
     1.4408   1.4408   1.8347   1.8347   2.0559   2.0559   2.1773   2.1773
     2.9544   2.9544   3.4527   3.4527   4.3634   4.3634   5.7694   5.7694
     6.1636   6.1636   6.4350   6.4350   7.4653   7.4653   7.8633   7.8633
     8.7178   8.7178   9.2851   9.2851   9.5562   9.5562  10.1967  10.1967
    10.7509  10.7509  11.6025  11.6025  11.8862  11.8862  12.2355  12.2355
    12.3207  12.3207  12.5022  12.5022  12.9730  12.9730  13.0813  13.0813
    13.2970  13.2970  13.3613  13.3613  13.4169  13.4169  13.4885  13.4885
    13.7019  13.7019  13.7535  13.7535  13.9705  13.9705  14.1181  14.1182
    14.6599  14.6599  14.7071  14.7071

          k = 0.0000 0.1925 0.0000 ( 15197 PWs)   bands (ev):

   -27.1833 -27.1833 -27.1786 -27.1786 -27.1481 -27.1481 -27.1044 -27.1044
   -26.6520 -26.6520 -26.5908 -26.5908 -26.5538 -26.5538 -26.5355 -26.5355
   -26.4853 -26.4853 -26.4419 -26.4419 -13.1878 -13.1878  -6.3087  -6.3087
    -4.3355  -4.3355  -3.2742  -3.2742  -0.3805  -0.3805   0.1024   0.1024
     1.6819   1.6819   2.2948   2.2948   2.4115   2.4115   2.5516   2.5516
     3.0186   3.0186   3.6930   3.6930   4.2987   4.2987   5.9187   5.9187
     6.2114   6.2114   6.9213   6.9213   7.0471   7.0471   7.8383   7.8383
     8.9526   8.9526   9.2042   9.2042   9.4325   9.4325  10.3837  10.3837
    10.5350  10.5350  10.6722  10.6722  10.9332  10.9332  11.3776  11.3776
    11.3962  11.3962  11.8647  11.8647  12.0758  12.0758  12.5671  12.5671
    12.5742  12.5742  12.6792  12.6792  12.6973  12.6973  13.1394  13.1394
    13.3852  13.3852  13.5920  13.5920  13.8644  13.8644  13.9136  13.9136
    13.9682  13.9682  14.1203  14.1203

          k = 0.0000 0.2887 0.0000 ( 15148 PWs)   bands (ev):

   -27.1836 -27.1836 -27.1771 -27.1771 -27.1443 -27.1443 -27.1064 -27.1064
   -26.6422 -26.6422 -26.5913 -26.5913 -26.5675 -26.5675 -26.5313 -26.5313
   -26.4733 -26.4733 -26.4402 -26.4402 -12.8239 -12.8239  -7.2397  -7.2397
    -4.3690  -4.3690  -3.6637  -3.6637  -0.5682  -0.5682   0.0645   0.0645
     2.1070   2.1070   2.6900   2.6900   2.9457   2.9457   3.4424   3.4424
     3.5192   3.5192   4.0762   4.0762   4.4883   4.4883   5.8374   5.8374
     6.5193   6.5193   6.8353   6.8353   6.9627   6.9627   7.7520   7.7520
     8.7453   8.7453   8.9803   8.9803   9.0841   9.0841   9.6407   9.6407
     9.7624   9.7624  10.2045  10.2045  10.4190  10.4190  10.5275  10.5275
    11.0716  11.0716  11.5096  11.5096  11.8375  11.8375  12.0220  12.0220
    12.0704  12.0704  12.2074  12.2074  12.5914  12.5914  12.6198  12.6198
    12.6912  12.6912  13.3210  13.3210  13.3529  13.3529  13.4775  13.4775
    13.5120  13.5120  13.8318  13.8318

          k = 0.0000 0.3849 0.0000 ( 15118 PWs)   bands (ev):

   -27.1840 -27.1840 -27.1751 -27.1751 -27.1418 -27.1418 -27.1097 -27.1097
   -26.6323 -26.6323 -26.5928 -26.5928 -26.5791 -26.5791 -26.5288 -26.5288
   -26.4637 -26.4637 -26.4398 -26.4398 -12.3381 -12.3381  -8.2983  -8.2983
    -4.0682  -4.0682  -3.9768  -3.9768  -0.9697  -0.9697  -0.2106  -0.2106
     2.3256   2.3256   3.2533   3.2533   3.5448   3.5448   4.1705   4.1705
     4.4535   4.4535   4.6789   4.6789   5.1936   5.1936   5.5710   5.5710
     6.5479   6.5479   7.0353   7.0353   7.1272   7.1272   7.3274   7.3274
     7.5717   7.5717   7.7179   7.7179   8.8092   8.8092   8.9464   8.9464
     9.6380   9.6380  10.1196  10.1196  10.2933  10.2933  10.3558  10.3558
    10.8685  10.8685  11.1798  11.1798  11.3530  11.3530  11.4861  11.4861
    11.6549  11.6549  11.6932  11.6932  11.8167  11.8167  12.7749  12.7749
    12.8279  12.8279  12.9050  12.9050  13.0005  13.0005  13.4761  13.4761
    14.0907  14.0914  14.1259  14.1304

          k = 0.0000 0.4811 0.0000 ( 15084 PWs)   bands (ev):

   -27.1848 -27.1848 -27.1721 -27.1721 -27.1406 -27.1406 -27.1108 -27.1108
   -26.6245 -26.6245 -26.5959 -26.5959 -26.5838 -26.5838 -26.5268 -26.5268
   -26.4596 -26.4596 -26.4368 -26.4368 -11.7976 -11.7976  -9.2189  -9.2189
    -4.1956  -4.1956  -3.6587  -3.6587  -1.3831  -1.3831  -0.5414  -0.5414
     2.7674   2.7674   3.9008   3.9008   4.2652   4.2652   4.4909   4.4909
     4.6068   4.6068   5.2561   5.2561   5.4850   5.4850   5.8981   5.8981
     6.2460   6.2460   6.3483   6.3483   7.0566   7.0566   7.5083   7.5083
     7.7437   7.7437   7.9409   7.9409   8.0697   8.0697   8.1472   8.1472
     9.5581   9.5581   9.8267   9.8267   9.8513   9.8513  10.0609  10.0609
    10.7792  10.7792  10.9791  10.9791  11.0645  11.0645  11.2226  11.2226
    11.3990  11.3990  11.4100  11.4100  11.5914  11.5914  12.0204  12.0204
    12.5451  12.5451  12.6836  12.6836  12.6933  12.6933  12.7973  12.7973
    13.1606  13.1606  13.3203  13.3203

          k = 0.0000-0.5774 0.0000 ( 15066 PWs)   bands (ev):

   -27.1849 -27.1849 -27.1713 -27.1713 -27.1394 -27.1394 -27.1117 -27.1117
   -26.6222 -26.6222 -26.5979 -26.5979 -26.5843 -26.5843 -26.5259 -26.5259
   -26.4576 -26.4576 -26.4362 -26.4362 -11.4866 -11.4866  -9.6607  -9.6607
    -4.2661  -4.2661  -3.4467  -3.4467  -1.6044  -1.6044  -0.6699  -0.6699
     3.1344   3.1344   4.0304   4.0304   4.5573   4.5573   4.7101   4.7101
     4.9241   4.9241   5.2234   5.2234   5.2665   5.2665   5.6148   5.6148
     6.3307   6.3307   6.5440   6.5440   6.6185   6.6185   6.7926   6.7926
     8.4035   8.4035   8.6002   8.6002   8.8041   8.8041   8.8241   8.8241
     8.9340   8.9340   9.0540   9.0540   9.3041   9.3041   9.6292   9.6292
    10.3090  10.3090  10.8642  10.8642  11.0798  11.0798  11.2511  11.2511
    11.3109  11.3109  11.3474  11.3474  11.7774  11.7774  11.8620  11.8620
    12.1099  12.1099  12.1491  12.1491  12.6155  12.6155  12.6320  12.6320
    12.7886  12.7886  12.8380  12.8380

          k = 0.0833 0.1443 0.0000 ( 15193 PWs)   bands (ev):

   -27.1825 -27.1825 -27.1779 -27.1779 -27.1492 -27.1492 -27.1034 -27.1034
   -26.6533 -26.6533 -26.5907 -26.5907 -26.5495 -26.5495 -26.5360 -26.5360
   -26.4878 -26.4878 -26.4415 -26.4415 -13.2616 -13.2616  -6.1335  -6.1335
    -4.1947  -4.1947  -3.2412  -3.2412  -0.2769  -0.2769   0.0915   0.0915
     1.2887   1.2887   2.2156   2.2156   2.3182   2.3182   2.4833   2.4833
     2.9807   2.9807   3.6135   3.6135   4.3039   4.3039   5.8902   5.8902
     6.2216   6.2216   6.8045   6.8045   6.8948   6.8948   8.3502   8.3502
     8.6520   8.6520   9.3246   9.3246   9.6006   9.6006  10.0078  10.0078
    10.4832  10.4832  11.1904  11.1904  11.3473  11.3473  11.5112  11.5112
    11.6069  11.6069  11.6187  11.6187  12.4512  12.4512  12.6853  12.6853
    12.8533  12.8533  12.8850  12.8850  12.9291  12.9291  13.2259  13.2259
    13.2757  13.2757  13.5460  13.5460  13.6622  13.6622  14.4827  14.4827
    14.4902  14.4903  14.6162  14.6164

          k = 0.0833 0.2406 0.0000 ( 15166 PWs)   bands (ev):

   -27.1835 -27.1835 -27.1780 -27.1780 -27.1460 -27.1460 -27.1052 -27.1052
   -26.6458 -26.6458 -26.5914 -26.5914 -26.5629 -26.5629 -26.5326 -26.5326
   -26.4780 -26.4780 -26.4396 -26.4396 -12.9678 -12.9678  -6.8504  -6.8504
    -4.3861  -4.3861  -3.7186  -3.7186  -0.0630  -0.0630   0.2043   0.2043
     1.5894   1.5894   2.5242   2.5242   2.5898   2.5898   3.0426   3.0426
     3.4616   3.4616   3.9321   3.9321   4.3665   4.3665   5.8839   5.8839
     6.3616   6.3616   6.5482   6.5482   7.5150   7.5150   8.2914   8.2914
     8.7141   8.7141   9.2714   9.2714   9.5560   9.5560   9.7196   9.7196
     9.9124   9.9124   9.9415   9.9415  10.3012  10.3012  10.8298  10.8298
    10.9446  10.9446  11.1460  11.1460  11.2732  11.2732  12.1423  12.1423
    12.2262  12.2262  12.3476  12.3476  12.6834  12.6834  13.3720  13.3720
    13.4648  13.4648  13.5725  13.5725  13.7841  13.7841  13.9419  13.9419
    13.9542  13.9542  14.1763  14.1763

          k = 0.0833 0.3368 0.0000 ( 15127 PWs)   bands (ev):

   -27.1847 -27.1847 -27.1755 -27.1755 -27.1432 -27.1432 -27.1074 -27.1074
   -26.6360 -26.6360 -26.5927 -26.5927 -26.5746 -26.5746 -26.5294 -26.5294
   -26.4697 -26.4697 -26.4370 -26.4370 -12.5398 -12.5398  -7.8468  -7.8468
    -4.2726  -4.2726  -4.0447  -4.0447  -0.4978  -0.4978   0.1668   0.1668
     2.1688   2.1688   2.9659   2.9659   3.2109   3.2109   3.4443   3.4443
     4.0318   4.0318   4.4701   4.4701   4.7651   4.7651   5.9296   5.9296
     6.7593   6.7593   6.9325   6.9325   7.0630   7.0630   7.7457   7.7457
     8.2755   8.2755   8.3835   8.3835   8.7899   8.7899   9.5066   9.5066
     9.6973   9.6973   9.8625   9.8625   9.9952   9.9952  10.2724  10.2724
    10.3682  10.3682  10.5045  10.5045  11.4336  11.4336  11.6101  11.6101
    11.7864  11.7864  12.0721  12.0721  12.1108  12.1108  12.3600  12.3600
    13.1571  13.1571  13.4277  13.4277  13.8047  13.8047  13.8514  13.8514
    13.9662  13.9662  14.0145  14.0147

          k = 0.0833 0.4330 0.0000 ( 15116 PWs)   bands (ev):

   -27.1853 -27.1853 -27.1737 -27.1737 -27.1428 -27.1428 -27.1100 -27.1100
   -26.6288 -26.6288 -26.5945 -26.5945 -26.5821 -26.5821 -26.5276 -26.5276
   -26.4669 -26.4669 -26.4343 -26.4343 -12.0111 -12.0111  -8.8313  -8.8313
    -4.5039  -4.5039  -3.7189  -3.7189  -1.0639  -1.0639  -0.0174  -0.0174
     2.5785   2.5785   3.4669   3.4669   3.9380   3.9380   3.9931   3.9931
     4.7018   4.7018   5.1330   5.1330   5.3501   5.3501   5.5565   5.5565
     6.5307   6.5307   6.9531   6.9531   7.1734   7.1734   7.4605   7.4605
     7.7591   7.7591   8.1653   8.1653   8.2155   8.2155   8.3762   8.3762
     8.7609   8.7609   9.8598   9.8598  10.0056  10.0056  10.3578  10.3578
    10.4385  10.4385  10.5844  10.5844  10.7216  10.7216  10.9716  10.9716
    11.3448  11.3448  11.4485  11.4485  11.7969  11.7969  12.8713  12.8713
    12.9815  12.9815  13.1276  13.1276  13.3677  13.3677  13.4658  13.4658
    13.8914  13.8914  13.9601  13.9605

          k = 0.0833 0.5292 0.0000 ( 15078 PWs)   bands (ev):

   -27.1853 -27.1853 -27.1708 -27.1708 -27.1423 -27.1423 -27.1098 -27.1098
   -26.6236 -26.6236 -26.5961 -26.5961 -26.5840 -26.5840 -26.5252 -26.5252
   -26.4663 -26.4663 -26.4306 -26.4306 -11.5180 -11.5180  -9.5682  -9.5682
    -4.6582  -4.6582  -3.3384  -3.3384  -1.5446  -1.5446  -0.1578  -0.1578
     2.9923   2.9923   3.7758   3.7758   4.4026   4.4026   4.6277   4.6277
     4.8160   4.8160   5.4126   5.4126   5.7128   5.7128   5.8799   5.8799
     6.0366   6.0366   6.3377   6.3377   6.9481   6.9481   7.0736   7.0736
     7.7054   7.7054   8.1751   8.1751   8.4071   8.4071   8.5642   8.5642
     9.1826   9.1826   9.2490   9.2490   9.5188   9.5188   9.5554   9.5554
     9.9353   9.9353  10.0479  10.0479  11.0271  11.0271  11.1472  11.1472
    11.2442  11.2442  11.6050  11.6050  11.6722  11.6722  12.2060  12.2060
    12.5717  12.5717  12.6037  12.6037  12.8971  12.8971  12.9828  12.9828
    13.4712  13.4712  13.5955  13.5955

          k = 0.1667 0.2887 0.0000 ( 15129 PWs)   bands (ev):

   -27.1844 -27.1844 -27.1754 -27.1754 -27.1441 -27.1441 -27.1070 -27.1070
   -26.6373 -26.6373 -26.5929 -26.5929 -26.5719 -26.5719 -26.5294 -26.5294
   -26.4729 -26.4729 -26.4358 -26.4358 -12.6079 -12.6079  -7.6523  -7.6523
    -4.3715  -4.3715  -4.1640  -4.1640  -0.2528  -0.2528   0.9688   0.9688
     1.5331   1.5331   2.7651   2.7651   2.9216   2.9216   3.3155   3.3155
     3.7709   3.7709   4.4085   4.4085   4.6306   4.6306   6.2133   6.2133
     6.6429   6.6429   6.8725   6.8725   7.5174   7.5174   7.8665   7.8665
     8.6026   8.6026   9.0598   9.0598   9.1940   9.1940   9.2354   9.2354
     9.3929   9.3929   9.5781   9.5781   9.9778   9.9778  10.1322  10.1322
    10.4076  10.4076  10.4836  10.4836  10.7943  10.7943  10.9235  10.9235
    10.9295  10.9295  12.6742  12.6742  12.7723  12.7723  13.0104  13.0104
    13.1173  13.1173  13.5965  13.5965  13.8064  13.8064  13.8381  13.8381
    14.0093  14.0093  14.2864  14.2864

          k = 0.1667 0.3849 0.0000 ( 15098 PWs)   bands (ev):

   -27.1851 -27.1851 -27.1728 -27.1728 -27.1443 -27.1443 -27.1072 -27.1072
   -26.6303 -26.6303 -26.5934 -26.5934 -26.5786 -26.5786 -26.5261 -26.5261
   -26.4733 -26.4733 -26.4290 -26.4290 -12.1248 -12.1248  -8.5457  -8.5457
    -4.8945  -4.8945  -3.7744  -3.7744  -0.7714  -0.7714   1.0983   1.0983
     2.3408   2.3408   3.0030   3.0030   3.4223   3.4223   3.7485   3.7485
     3.8804   3.8804   4.9931   4.9931   5.1258   5.1258   6.1480   6.1480
     7.0123   7.0123   7.2313   7.2313   7.4366   7.4366   7.6588   7.6588
     7.8659   7.8659   8.0505   8.0505   8.5463   8.5463   8.8175   8.8175
     8.9032   8.9032   9.1251   9.1251   9.3898   9.3898   9.9534   9.9534
    10.0652  10.0652  10.4143  10.4143  10.5194  10.5194  10.8202  10.8202
    11.3980  11.3980  11.6068  11.6068  11.8809  11.8809  12.4899  12.4899
    12.6825  12.6825  12.9513  12.9513  13.6696  13.6696  14.2751  14.2751
    14.4341  14.4342  14.6763  14.6766

          k = 0.1667 0.4811 0.0000 ( 15093 PWs)   bands (ev):

   -27.1857 -27.1857 -27.1705 -27.1705 -27.1457 -27.1457 -27.1078 -27.1078
   -26.6268 -26.6268 -26.5932 -26.5932 -26.5817 -26.5817 -26.5238 -26.5238
   -26.4774 -26.4774 -26.4244 -26.4244 -11.5752 -11.5752  -9.3764  -9.3764
    -5.2203  -5.2203  -3.2966  -3.2966  -1.3760  -1.3760   1.0320   1.0320
     2.7740   2.7740   3.1728   3.1728   4.3751   4.3751   4.4776   4.4776
     4.7205   4.7205   5.0474   5.0474   5.7356   5.7356   5.8578   5.8578
     6.3677   6.3677   6.5695   6.5695   7.0363   7.0363   7.4871   7.4871
     7.7494   7.7494   8.0690   8.0690   8.1294   8.1294   8.3473   8.3473
     8.4727   8.4727   8.6866   8.6866   9.3725   9.3725   9.6147   9.6147
     9.8722   9.8722  10.1441  10.1441  10.3244  10.3244  10.4760  10.4760
    11.2001  11.2001  11.4126  11.4126  12.1809  12.1809  12.1981  12.1981
    12.7526  12.7526  13.2141  13.2141  13.3902  13.3902  13.5782  13.5782
    14.4447  14.4447  14.5464  14.5464

          k = 0.1667 0.5774 0.0000 ( 15084 PWs)   bands (ev):

   -27.1854 -27.1854 -27.1697 -27.1697 -27.1458 -27.1458 -27.1077 -27.1077
   -26.6262 -26.6262 -26.5919 -26.5919 -26.5819 -26.5819 -26.5234 -26.5234
   -26.4794 -26.4794 -26.4222 -26.4222 -11.2382 -11.2382  -9.8125  -9.8125
    -5.3291  -5.3291  -3.0072  -3.0072  -1.7160  -1.7160   0.9992   0.9992
     2.6856   2.6856   3.8094   3.8094   4.2455   4.2455   5.1718   5.1718
     5.3318   5.3318   5.4573   5.4573   5.5109   5.5109   5.7100   5.7100
     6.5507   6.5507   6.5978   6.5978   6.6784   6.6784   6.8011   6.8011
     6.8175   6.8175   7.7746   7.7746   8.2405   8.2405   8.4903   8.4903
     8.5317   8.5317   8.8873   8.8873   9.1045   9.1045   9.2417   9.2417
     9.5905   9.5905   9.8533   9.8533   9.9439   9.9439  11.0370  11.0370
    11.7907  11.7907  11.9679  11.9679  12.1467  12.1467  12.2426  12.2426
    12.4356  12.4356  12.7426  12.7426  12.7685  12.7685  13.5628  13.5628
    14.4578  14.4579  14.5222  14.5223

          k = 0.2500 0.4330 0.0000 ( 15087 PWs)   bands (ev):

   -27.1857 -27.1857 -27.1695 -27.1695 -27.1468 -27.1468 -27.1068 -27.1068
   -26.6279 -26.6279 -26.5918 -26.5918 -26.5797 -26.5797 -26.5230 -26.5230
   -26.4818 -26.4818 -26.4218 -26.4218 -11.6014 -11.6014  -9.2749  -9.2749
    -5.4602  -5.4602  -3.3008  -3.3008  -1.2811  -1.2811   2.1803   2.1803
     2.6391   2.6391   2.7630   2.7630   3.5780   3.5780   4.2977   4.2977
     4.4907   4.4907   5.5791   5.5791   5.6671   5.6671   5.7581   5.7581
     6.3749   6.3749   7.1339   7.1339   7.3697   7.3697   7.4850   7.4850
     7.5002   7.5002   7.9512   7.9512   7.9850   7.9850   8.2403   8.2403
     8.6366   8.6366   8.6472   8.6472   8.7008   8.7008   9.1680   9.1680
     9.8487   9.8487  10.4102  10.4102  10.6916  10.6916  11.1186  11.1186
    11.1366  11.1366  11.2292  11.2292  11.4632  11.4632  11.7594  11.7594
    11.8707  11.8707  13.9607  13.9608  13.9921  13.9921  14.4307  14.4308
    14.4446  14.4446  14.5221  14.5221

          k = 0.2500 0.5292 0.0000 ( 15122 PWs)   bands (ev):

   -27.1873 -27.1873 -27.1685 -27.1685 -27.1508 -27.1508 -27.1071 -27.1071
   -26.6287 -26.6287 -26.5910 -26.5910 -26.5811 -26.5811 -26.5208 -26.5208
   -26.4914 -26.4914 -26.4186 -26.4186 -11.0573 -11.0573  -9.9290  -9.9290
    -5.7596  -5.7596  -2.8063  -2.8063  -1.8067  -1.8067   2.2738   2.2738
     2.5090   2.5090   3.6777   3.6777   4.4845   4.4845   4.7628   4.7628
     5.1236   5.1236   5.3152   5.3152   5.7339   5.7339   6.0857   6.0857
     6.2949   6.2949   6.4929   6.4929   6.5671   6.5671   6.9279   6.9279
     7.1422   7.1422   7.3544   7.3544   7.5298   7.5298   7.7325   7.7325
     8.4714   8.4714   8.5937   8.5937   8.8094   8.8094   8.9613   8.9613
     9.7319   9.7319   9.9019   9.9019  10.6214  10.6214  10.8453  10.8453
    10.9419  10.9419  11.6781  11.6781  12.1222  12.1222  12.2620  12.2620
    12.8315  12.8315  13.1147  13.1147  13.2174  13.2174  14.0814  14.0814
    14.3244  14.3244  14.7223  14.7224

          k = 0.3333 0.5774 0.0000 ( 15138 PWs)   bands (ev):

   -27.1885 -27.1885 -27.1679 -27.1679 -27.1535 -27.1535 -27.1063 -27.1063
   -26.6296 -26.6296 -26.5900 -26.5900 -26.5821 -26.5821 -26.5175 -26.5175
   -26.4983 -26.4983 -26.4163 -26.4163 -10.5062 -10.5062 -10.4849 -10.4849
    -5.9554  -5.9554  -2.3062  -2.3062  -2.2815  -2.2815   2.1131   2.1131
     3.7769   3.7769   3.9019   3.9019   4.5333   4.5333   4.5522   4.5522
     4.7160   4.7160   5.9170   5.9170   5.9190   5.9190   5.9454   5.9454
     6.2366   6.2366   6.2368   6.2368   6.2431   6.2431   6.4446   6.4446
     7.2695   7.2695   7.2696   7.2696   7.5081   7.5081   7.5086   7.5086
     7.6218   7.6218   7.9182   7.9182   9.4482   9.4482   9.4487   9.4487
     9.8148   9.8148   9.8154   9.8154   9.8453   9.8453  10.2315  10.2315
    11.7388  11.7388  12.0121  12.0121  12.0259  12.0259  12.9325  12.9325
    12.9363  12.9363  13.3273  13.3273  13.3374  13.3374  13.3917  13.3917
    13.8106  13.8106  13.9683  13.9683

     highest occupied, lowest unoccupied level (ev):    -2.3062   -2.2815

!    total energy              =    -357.08893118 Ry
     estimated scf accuracy    <          1.3E-09 Ry

     The total energy is the sum of the following terms:
     one-electron contribution =   -1155.41424118 Ry
     hartree contribution      =     584.90032861 Ry
     xc contribution           =     -87.05580870 Ry
     ewald contribution        =     300.48079010 Ry

     convergence has been achieved in   7 iterations

     Writing all to output data dir ./outdir/Germanene.save/

     init_run     :     99.61s CPU     18.48s WALL (       1 calls)
     electrons    :   2809.63s CPU    438.03s WALL (       1 calls)

     Called by init_run:
     wfcinit      :     95.59s CPU     17.05s WALL (       1 calls)
     potinit      :      1.97s CPU      0.61s WALL (       1 calls)
     hinit0       :      1.94s CPU      0.71s WALL (       1 calls)

     Called by electrons:
     c_bands      :   2381.23s CPU    366.05s WALL (       8 calls)
     sum_band     :    420.80s CPU     70.47s WALL (       8 calls)
     v_of_rho     :      4.55s CPU      0.79s WALL (       8 calls)
     mix_rho      :      1.54s CPU      0.45s WALL (       8 calls)

     Called by c_bands:
     init_us_2    :      6.91s CPU      1.51s WALL (     323 calls)
     init_us_2:cp :      6.91s CPU      1.51s WALL (     323 calls)
     cegterg      :   2331.94s CPU    358.54s WALL (     152 calls)

     Called by *egterg:
     cdiaghg      :     34.91s CPU      7.71s WALL (     788 calls)
     h_psi        :   2043.21s CPU    316.92s WALL (     826 calls)
     g_psi        :      8.28s CPU      1.01s WALL (     655 calls)

     Called by h_psi:
     h_psi:calbec :     47.83s CPU      4.54s WALL (     826 calls)
     vloc_psi     :   1942.30s CPU    305.30s WALL (     826 calls)
     add_vuspsi   :     35.73s CPU      4.67s WALL (     826 calls)

     General routines
     calbec       :     47.77s CPU      4.53s WALL (     826 calls)
     fft          :      3.57s CPU      0.86s WALL (     158 calls)
     ffts         :      1.25s CPU      0.45s WALL (      64 calls)
     fftw         :   1533.56s CPU    244.56s WALL (  199888 calls)
     interpolate  :      1.91s CPU      0.60s WALL (      32 calls)

     Parallel routines

     PWSCF        :  48m30.59s CPU   7m37.18s WALL


   This run was terminated on:  19:42:33  24Aug2022            

=------------------------------------------------------------------------------=
   JOB DONE.
=------------------------------------------------------------------------------=
