
     Program PWSCF v.7.1 starts on 18Oct2022 at  3:51:40 
        Git branch: all_p_qe-7.1
        Last git commit: 64b50ae7008d8f92f2d90b8cd0971bd852daf481
        Last git commit date: Tue Sep 27 11:29:25 2022 -0300
        Last git commit subject: fix: write p instead of |p|^2

     This program is part of the open-source Quantum ESPRESSO suite
     for quantum simulation of materials; please cite
         "P. Giannozzi et al., J. Phys.:Condens. Matter 21 395502 (2009);
         "P. Giannozzi et al., J. Phys.:Condens. Matter 29 465901 (2017);
         "P. Giannozzi et al., J. Chem. Phys. 152 154105 (2020);
          URL http://www.quantum-espresso.org", 
     in publications or presentations arising from this work. More details at
     http://www.quantum-espresso.org/quote

     Parallel version (MPI & OpenMP), running on       4 processor cores
     Number of MPI processes:                 1
     Threads/MPI process:                     4

     MPI processes distributed on     1 nodes
     21792 MiB available memory on the printing compute node when the environment starts

     Reading input from nscf.in

     Current dimensions of program PWSCF are:
     Max number of different atomic species (ntypx) = 10
     Max number of k-points (npk) =  40000
     Max angular momentum in pseudopotentials (lmaxx) =  4

     Atomic positions and unit cell read from directory:
     ./outdir/Bi2Se3.save/
     Atomic positions from file used, from input discarded


     Subspace diagonalization in iterative solution of the eigenvalue problem:
     a serial algorithm will be used


     G-vector sticks info
     --------------------
     sticks:   dense  smooth     PW     G-vecs:    dense   smooth      PW
     Sum        6353    2551    715               210205    53195    8009

     Using Slab Decomposition



     bravais-lattice index     =            5
     lattice parameter (alat)  =      18.3932  a.u.
     unit-cell volume          =     847.1634 (a.u.)^3
     number of atoms/cell      =            5
     number of atomic types    =            2
     number of electrons       =        78.00
     number of Kohn-Sham states=          500
     kinetic-energy cutoff     =      60.0000  Ry
     charge density cutoff     =     600.0000  Ry
     Exchange-correlation= PBE
                           (   1   4   3   4   0   0   0)
     Non magnetic calculation with spin-orbit


     celldm(1)=  18.393153  celldm(2)=   0.000000  celldm(3)=   0.000000
     celldm(4)=   0.919190  celldm(5)=   0.000000  celldm(6)=   0.000000

     crystal axes: (cart. coord. in units of alat)
               a(1) = (   0.201010  -0.116053   0.972691 )  
               a(2) = (   0.000000   0.232106   0.972691 )  
               a(3) = (  -0.201010  -0.116053   0.972691 )  

     reciprocal axes: (cart. coord. in units 2 pi/alat)
               b(1) = (  2.487444 -1.436127  0.342692 )  
               b(2) = (  0.000000  2.872253  0.342692 )  
               b(3) = ( -2.487444 -1.436127  0.342692 )  


     PseudoPot. # 1 for Bi read from file:
     ../../pseudos/ONCVPSP/abinit/Bi_ONCV_PBE_fr.upf
     MD5 check sum: 67fe3f209319bd312dc946f0524d3915
     Pseudo is Norm-conserving + core correction, Zval = 15.0
     Generated using ONCVPSP code by D. R. Hamann
     Using radial grid of 1562 points, 10 beta functions with: 
                l(1) =   0
                l(2) =   0
                l(3) =   1
                l(4) =   1
                l(5) =   1
                l(6) =   1
                l(7) =   2
                l(8) =   2
                l(9) =   2
               l(10) =   2

     PseudoPot. # 2 for Se read from file:
     ../../pseudos/ONCVPSP/abinit/Se_ONCV_PBE_fr.upf
     MD5 check sum: 19a0efce42a680f7a7be0bdd339d90c8
     Pseudo is Norm-conserving + core correction, Zval = 16.0
     Generated using ONCVPSP code by D. R. Hamann
     Using radial grid of 1214 points, 10 beta functions with: 
                l(1) =   0
                l(2) =   0
                l(3) =   1
                l(4) =   1
                l(5) =   1
                l(6) =   1
                l(7) =   2
                l(8) =   2
                l(9) =   2
               l(10) =   2

     atomic species   valence    mass     pseudopotential
        Bi            15.00   208.98000     Bi( 1.00)
        Se            16.00    78.97100     Se( 1.00)

     12 Sym. Ops., with inversion, found



   Cartesian axes

     site n.     atom                  positions (alat units)
         1           Bi  tau(   1) = (   0.0000000   0.0000000   1.1715031  )
         2           Bi  tau(   2) = (  -0.0000000   0.0000000   1.7465686  )
         3           Se  tau(   3) = (   0.0000000   0.0000000   0.0000000  )
         4           Se  tau(   4) = (  -0.0000000   0.0000000   2.3074808  )
         5           Se  tau(   5) = (   0.0000000   0.0000000   0.6105908  )

     number of k points=    61  Gaussian smearing, width (Ry)=  0.0100
                       cart. coord. in units 2pi/alat
        k(    1) = (   0.0000000  -1.4361266   0.3426921), wk =   0.0163934
        k(    2) = (   0.0000000  -1.3882557   0.3312690), wk =   0.0163934
        k(    3) = (   0.0000000  -1.3403848   0.3198459), wk =   0.0163934
        k(    4) = (   0.0000000  -1.2925139   0.3084229), wk =   0.0163934
        k(    5) = (   0.0000000  -1.2446430   0.2969998), wk =   0.0163934
        k(    6) = (   0.0000000  -1.1967722   0.2855767), wk =   0.0163934
        k(    7) = (   0.0000000  -1.1489013   0.2741537), wk =   0.0163934
        k(    8) = (   0.0000000  -1.1010304   0.2627306), wk =   0.0163934
        k(    9) = (   0.0000000  -1.0531595   0.2513075), wk =   0.0163934
        k(   10) = (   0.0000000  -1.0052886   0.2398844), wk =   0.0163934
        k(   11) = (   0.0000000  -0.9574177   0.2284614), wk =   0.0163934
        k(   12) = (   0.0000000  -0.9095468   0.2170383), wk =   0.0163934
        k(   13) = (   0.0000000  -0.8616760   0.2056152), wk =   0.0163934
        k(   14) = (   0.0000000  -0.8138051   0.1941922), wk =   0.0163934
        k(   15) = (   0.0000000  -0.7659342   0.1827691), wk =   0.0163934
        k(   16) = (   0.0000000  -0.7180633   0.1713460), wk =   0.0163934
        k(   17) = (   0.0000000  -0.6701924   0.1599230), wk =   0.0163934
        k(   18) = (   0.0000000  -0.6223215   0.1484999), wk =   0.0163934
        k(   19) = (   0.0000000  -0.5744506   0.1370768), wk =   0.0163934
        k(   20) = (   0.0000000  -0.5265797   0.1256538), wk =   0.0163934
        k(   21) = (   0.0000000  -0.4787089   0.1142307), wk =   0.0163934
        k(   22) = (   0.0000000  -0.4308380   0.1028076), wk =   0.0163934
        k(   23) = (   0.0000000  -0.3829671   0.0913846), wk =   0.0163934
        k(   24) = (   0.0000000  -0.3350962   0.0799615), wk =   0.0163934
        k(   25) = (   0.0000000  -0.2872253   0.0685384), wk =   0.0163934
        k(   26) = (   0.0000000  -0.2393544   0.0571153), wk =   0.0163934
        k(   27) = (   0.0000000  -0.1914835   0.0456923), wk =   0.0163934
        k(   28) = (   0.0000000  -0.1436127   0.0342692), wk =   0.0163934
        k(   29) = (   0.0000000  -0.0957418   0.0228461), wk =   0.0163934
        k(   30) = (   0.0000000  -0.0478709   0.0114231), wk =   0.0163934
        k(   31) = (   0.0000000   0.0000000   0.0000000), wk =   0.0163934
        k(   32) = (  -0.0414574  -0.0239354   0.0057115), wk =   0.0163934
        k(   33) = (  -0.0829148  -0.0478709   0.0114231), wk =   0.0163934
        k(   34) = (  -0.1243722  -0.0718063   0.0171346), wk =   0.0163934
        k(   35) = (  -0.1658296  -0.0957418   0.0228461), wk =   0.0163934
        k(   36) = (  -0.2072870  -0.1196772   0.0285577), wk =   0.0163934
        k(   37) = (  -0.2487444  -0.1436127   0.0342692), wk =   0.0163934
        k(   38) = (  -0.2902018  -0.1675481   0.0399807), wk =   0.0163934
        k(   39) = (  -0.3316592  -0.1914835   0.0456923), wk =   0.0163934
        k(   40) = (  -0.3731166  -0.2154190   0.0514038), wk =   0.0163934
        k(   41) = (  -0.4145740  -0.2393544   0.0571153), wk =   0.0163934
        k(   42) = (  -0.4560314  -0.2632899   0.0628269), wk =   0.0163934
        k(   43) = (  -0.4974888  -0.2872253   0.0685384), wk =   0.0163934
        k(   44) = (  -0.5389462  -0.3111608   0.0742499), wk =   0.0163934
        k(   45) = (  -0.5804036  -0.3350962   0.0799615), wk =   0.0163934
        k(   46) = (  -0.6218611  -0.3590316   0.0856730), wk =   0.0163934
        k(   47) = (  -0.6633185  -0.3829671   0.0913846), wk =   0.0163934
        k(   48) = (  -0.7047759  -0.4069025   0.0970961), wk =   0.0163934
        k(   49) = (  -0.7462333  -0.4308380   0.1028076), wk =   0.0163934
        k(   50) = (  -0.7876907  -0.4547734   0.1085192), wk =   0.0163934
        k(   51) = (  -0.8291481  -0.4787089   0.1142307), wk =   0.0163934
        k(   52) = (  -0.8706055  -0.5026443   0.1199422), wk =   0.0163934
        k(   53) = (  -0.9120629  -0.5265797   0.1256538), wk =   0.0163934
        k(   54) = (  -0.9535203  -0.5505152   0.1313653), wk =   0.0163934
        k(   55) = (  -0.9949777  -0.5744506   0.1370768), wk =   0.0163934
        k(   56) = (  -1.0364351  -0.5983861   0.1427884), wk =   0.0163934
        k(   57) = (  -1.0778925  -0.6223215   0.1484999), wk =   0.0163934
        k(   58) = (  -1.1193499  -0.6462570   0.1542114), wk =   0.0163934
        k(   59) = (  -1.1608073  -0.6701924   0.1599230), wk =   0.0163934
        k(   60) = (  -1.2022647  -0.6941278   0.1656345), wk =   0.0163934
        k(   61) = (  -1.2437221  -0.7180633   0.1713460), wk =   0.0163934

     Dense  grid:   210205 G-vectors     FFT dimensions: ( 144, 144, 144)

     Smooth grid:    53195 G-vectors     FFT dimensions: (  96,  96,  96)

     Estimated max dynamical RAM per process >       1.08 GB

     The potential is recalculated from file :
     ./outdir/Bi2Se3.save/charge-density

     Starting wfcs are   90 randomized atomic wfcs +  410 random wfcs

     Band Structure Calculation
     Davidson diagonalization with overlap

     ethr =  1.28E-11,  avg # of iterations = 40.4

     total cpu time spent up to now is    17507.1 secs

     End of band structure calculation

          k = 0.0000-1.4361 0.3427 (  6674 PWs)   bands (ev):

   -37.0334 -37.0334 -37.0276 -37.0276 -37.0155 -37.0155 -37.0096 -37.0096
   -36.7942 -36.7942 -36.7314 -36.7314 -36.1411 -36.1411 -36.1370 -36.1370
   -36.1350 -36.1350 -36.1258 -36.1258 -36.1166 -36.1166 -36.1126 -36.1126
   -35.9051 -35.9051 -35.8774 -35.8774 -35.8230 -35.8230 -13.1975 -13.1975
   -13.1972 -13.1972 -13.1753 -13.1753 -13.1751 -13.1751 -10.2537 -10.2537
   -10.2501 -10.2501 -10.2149 -10.2149 -10.2112 -10.2112 -10.1826 -10.1826
   -10.1781 -10.1781  -1.8164  -1.8164  -1.6126  -1.6126  -1.5143  -1.5143
     0.4418   0.4418   1.2071   1.2071   5.5046   5.5046   6.2076   6.2076
     6.6729   6.6729   7.7102   7.7102   8.4395   8.4395   9.1984   9.1984
     9.4314   9.4314   9.5922   9.5922  10.2154  10.2154  12.2278  12.2278
    13.3333  13.3333  14.0648  14.0648  14.3231  14.3231  15.1460  15.1460
    15.3729  15.3729  17.1643  17.1643  17.9789  17.9789  18.4618  18.4618
    21.3797  21.3797  22.1009  22.1009  22.7821  22.7821  22.9584  22.9584
    23.0892  23.0892  23.7329  23.7329  23.9312  23.9312  24.0898  24.0898
    24.2239  24.2239  24.7539  24.7539  24.9680  24.9680  25.4274  25.4274
    25.4816  25.4816  26.0902  26.0902  26.5538  26.5538  26.8362  26.8362
    27.0342  27.0342  27.8807  27.8807  27.9980  27.9980  28.5425  28.5425
    28.9276  28.9276  29.7207  29.7207  29.9106  29.9106  30.5574  30.5574
    30.8284  30.8284  31.0805  31.0805  31.4309  31.4309  31.7582  31.7582
    32.0561  32.0561  32.4427  32.4427  32.5605  32.5605  32.9169  32.9169
    33.4401  33.4401  33.5925  33.5925  33.9647  33.9647  35.1785  35.1785
    35.7802  35.7802  36.2420  36.2420  36.2642  36.2642  36.6084  36.6084
    36.9275  36.9275  37.2366  37.2366  37.5327  37.5327  38.1769  38.1769
    38.3399  38.3399  38.7509  38.7509  38.8075  38.8075  38.9399  38.9399
    39.1808  39.1808  39.3298  39.3298  40.0923  40.0923  40.9919  40.9919
    41.3338  41.3338  41.5005  41.5005  41.8565  41.8565  42.0592  42.0592
    42.3383  42.3383  42.6270  42.6270  42.9738  42.9738  43.8989  43.8989
    44.1557  44.1557  44.2274  44.2274  44.7009  44.7009  45.2689  45.2689
    45.4551  45.4551  45.5628  45.5628  45.6998  45.6998  46.5319  46.5319
    46.6245  46.6245  46.9525  46.9525  47.1512  47.1512  47.3811  47.3811
    47.6822  47.6822  48.3480  48.3480  48.3956  48.3956  48.8911  48.8911
    49.1751  49.1751  49.6141  49.6141  49.7672  49.7672  51.3077  51.3077
    51.6184  51.6184  51.7361  51.7361  51.9611  51.9611  52.1168  52.1168
    52.3660  52.3660  52.4356  52.4356  52.4973  52.4973  52.7575  52.7575
    52.9357  52.9357  53.4121  53.4121  53.7860  53.7860  54.2694  54.2694
    54.5235  54.5235  55.5958  55.5958  55.8056  55.8056  55.9828  55.9828
    57.2555  57.2555  57.2875  57.2875  57.6000  57.6000  57.6193  57.6193
    58.1838  58.1838  58.3120  58.3120  58.5333  58.5333  58.9231  58.9231
    59.1297  59.1297  59.4593  59.4593  59.9590  59.9590  60.3717  60.3717
    60.4071  60.4071  60.4272  60.4272  61.3519  61.3519  61.4386  61.4386
    61.5789  61.5789  62.0454  62.0454  62.3076  62.3076  62.6849  62.6849
    62.7081  62.7081  62.8481  62.8481  63.6315  63.6315  63.7262  63.7262
    63.7646  63.7646  64.0224  64.0224  64.0225  64.0225  64.5064  64.5064
    65.0491  65.0491  65.3234  65.3234  65.7388  65.7388  65.8167  65.8167
    66.3420  66.3420  66.9205  66.9205  67.1711  67.1711  67.4945  67.4945
    67.5922  67.5922  67.6583  67.6583  68.7214  68.7214  68.7913  68.7913
    68.8089  68.8089  69.0893  69.0893  69.1197  69.1197  69.3619  69.3619
    69.6595  69.6595  69.6711  69.6711  70.0993  70.0993  70.2247  70.2247
    70.4321  70.4321  70.6644  70.6644  70.7091  70.7091  71.0458  71.0458
    71.2323  71.2323  71.4039  71.4039  71.5034  71.5034  71.5403  71.5403
    71.7127  71.7127  71.9409  71.9409  72.1756  72.1756  72.7175  72.7175
    73.4339  73.4339  73.4465  73.4465  73.6201  73.6201  73.8598  73.8598
    73.9061  73.9061  74.0170  74.0170  74.3438  74.3438  74.5284  74.5284
    75.1100  75.1100  75.1579  75.1579  75.2376  75.2376  75.3365  75.3365
    75.4530  75.4530  75.5177  75.5177  75.5795  75.5795  75.7520  75.7520
    76.1363  76.1363  76.4232  76.4232  76.5963  76.5963  76.6127  76.6127
    76.6854  76.6854  76.8836  76.8836  76.9756  76.9756  77.2309  77.2309
    77.9247  77.9247  78.0559  78.0559  78.3423  78.3423  78.6367  78.6367
    78.7883  78.7883  78.9879  78.9879  79.2243  79.2243  80.3079  80.3079
    80.7067  80.7067  81.1927  81.1927  81.3380  81.3380  81.7932  81.7932
    81.9741  81.9741  82.2789  82.2789  82.4062  82.4062  82.5703  82.5703
    82.7786  82.7786  83.0827  83.0827  83.3956  83.3956  83.6323  83.6323
    83.7865  83.7865  84.1050  84.1050

          k = 0.0000-1.3883 0.3313 (  6684 PWs)   bands (ev):

   -37.0338 -37.0338 -37.0301 -37.0301 -37.0164 -37.0164 -37.0139 -37.0139
   -36.7953 -36.7953 -36.7344 -36.7344 -36.1419 -36.1419 -36.1397 -36.1397
   -36.1349 -36.1349 -36.1284 -36.1284 -36.1181 -36.1181 -36.1173 -36.1173
   -35.9065 -35.9065 -35.8784 -35.8784 -35.8266 -35.8266 -13.1976 -13.1976
   -13.1973 -13.1973 -13.1754 -13.1754 -13.1751 -13.1751 -10.2537 -10.2537
   -10.2501 -10.2501 -10.2150 -10.2150 -10.2112 -10.2112 -10.1827 -10.1827
   -10.1782 -10.1782  -1.8396  -1.8396  -1.6200  -1.6200  -1.5013  -1.5013
     0.4528   0.4528   1.2119   1.2119   5.4932   5.4932   6.2296   6.2296
     6.6840   6.6840   7.7137   7.7137   8.4417   8.4417   9.1935   9.1935
     9.4341   9.4341   9.5934   9.5934  10.2012  10.2012  12.2495  12.2495
    13.3397  13.3397  14.0642  14.0642  14.3251  14.3251  15.1490  15.1490
    15.3731  15.3731  17.1473  17.1473  17.9746  17.9746  18.4736  18.4736
    21.3403  21.3403  22.1068  22.1068  22.7506  22.7506  22.7909  22.7909
    23.1377  23.1377  23.7591  23.7591  23.9082  23.9082  24.1002  24.1002
    24.2224  24.2224  24.7039  24.7039  25.0335  25.0335  25.4528  25.4528
    25.5456  25.5456  26.0770  26.0770  26.5502  26.5502  26.8858  26.8859
    27.0352  27.0352  27.9243  27.9243  27.9763  27.9763  28.4983  28.4983
    28.8656  28.8656  29.7327  29.7327  29.9719  29.9719  30.4146  30.4146
    30.8978  30.8978  31.0899  31.0899  31.3490  31.3490  31.5647  31.5647
    32.1876  32.1876  32.4493  32.4493  32.5516  32.5516  33.0343  33.0343
    33.3581  33.3581  33.7587  33.7587  33.9377  33.9377  35.1798  35.1798
    35.8395  35.8395  36.0356  36.0356  36.3619  36.3619  36.7014  36.7014
    36.9377  36.9377  37.2373  37.2373  37.5472  37.5472  37.9555  37.9555
    38.5111  38.5111  38.7420  38.7420  38.7945  38.7945  38.9755  38.9755
    39.0746  39.0746  39.5511  39.5511  40.0920  40.0920  40.9838  40.9838
    41.3528  41.3528  41.4835  41.4835  41.8509  41.8509  42.0410  42.0410
    42.2129  42.2129  42.7184  42.7184  42.9792  42.9792  43.9352  43.9352
    44.1137  44.1137  44.1969  44.1969  44.6292  44.6292  45.3360  45.3360
    45.4723  45.4723  45.5700  45.5700  45.7432  45.7432  46.4725  46.4725
    46.6170  46.6170  46.8766  46.8766  47.3421  47.3421  47.3847  47.3847
    47.6765  47.6765  48.3726  48.3726  48.4285  48.4285  48.9055  48.9056
    49.1800  49.1800  49.6350  49.6350  49.7592  49.7592  51.3020  51.3020
    51.4709  51.4709  51.7781  51.7781  51.9184  51.9184  52.0759  52.0759
    52.3236  52.3236  52.4643  52.4643  52.5899  52.5899  52.8248  52.8248
    52.9075  52.9075  53.4596  53.4596  53.7866  53.7866  54.2745  54.2745
    54.4972  54.4972  55.6486  55.6486  55.7207  55.7207  56.0496  56.0496
    57.0539  57.0539  57.3119  57.3119  57.5423  57.5423  57.5989  57.5989
    58.1484  58.1484  58.3201  58.3201  58.6521  58.6521  58.9200  58.9200
    59.1382  59.1382  59.4651  59.4651  59.8959  59.8959  60.1583  60.1583
    60.4559  60.4559  60.5589  60.5589  61.3494  61.3494  61.4258  61.4258
    61.4519  61.4519  62.0213  62.0213  62.3414  62.3414  62.5586  62.5586
    62.6385  62.6385  62.8844  62.8844  63.2836  63.2836  63.4099  63.4099
    64.0567  64.0567  64.2419  64.2419  64.3400  64.3400  64.6315  64.6315
    65.0263  65.0263  65.1537  65.1537  65.7275  65.7275  66.0384  66.0384
    66.3231  66.3231  66.9276  66.9276  67.0791  67.0791  67.4323  67.4323
    67.5155  67.5155  67.7963  67.7963  68.5864  68.5864  68.6874  68.6874
    68.8715  68.8715  69.0806  69.0806  69.1505  69.1505  69.4337  69.4337
    69.5197  69.5197  69.7797  69.7797  70.1509  70.1509  70.2009  70.2009
    70.2925  70.2925  70.5536  70.5536  70.7947  70.7947  70.9230  70.9230
    71.2711  71.2711  71.3928  71.3928  71.4565  71.4565  71.7241  71.7241
    71.8439  71.8440  71.9259  71.9260  72.3591  72.3591  72.6012  72.6012
    73.3672  73.3672  73.5275  73.5275  73.6724  73.6724  73.7027  73.7027
    73.7705  73.7705  74.0151  74.0151  74.4676  74.4676  74.5383  74.5383
    74.7330  74.7330  74.8684  74.8684  75.2081  75.2081  75.4201  75.4201
    75.5702  75.5702  75.5990  75.5990  75.7003  75.7003  76.0497  76.0497
    76.2671  76.2671  76.4357  76.4357  76.5620  76.5620  76.6153  76.6153
    76.6440  76.6440  76.8634  76.8634  77.0449  77.0449  77.2321  77.2321
    77.9818  77.9818  78.0706  78.0706  78.3790  78.3790  78.4791  78.4791
    78.9322  78.9322  79.0524  79.0524  79.3911  79.3911  80.2971  80.2971
    80.7024  80.7024  81.0230  81.0230  81.1594  81.1594  81.6637  81.6637
    81.9837  81.9837  82.3083  82.3083  82.5592  82.5592  82.7113  82.7113
    82.7665  82.7665  83.1094  83.1094  83.2456  83.2456  83.4649  83.4649
    83.5481  83.5481  84.2172  84.2172

          k = 0.0000-1.3404 0.3198 (  6684 PWs)   bands (ev):

   -37.0340 -37.0340 -37.0312 -37.0312 -37.0160 -37.0160 -37.0129 -37.0129
   -36.7956 -36.7956 -36.7339 -36.7339 -36.1417 -36.1417 -36.1409 -36.1409
   -36.1351 -36.1351 -36.1280 -36.1280 -36.1180 -36.1180 -36.1159 -36.1159
   -35.9071 -35.9071 -35.8780 -35.8780 -35.8263 -35.8263 -13.1976 -13.1976
   -13.1973 -13.1973 -13.1755 -13.1755 -13.1750 -13.1750 -10.2536 -10.2536
   -10.2499 -10.2499 -10.2150 -10.2150 -10.2113 -10.2113 -10.1829 -10.1829
   -10.1784 -10.1784  -1.8988  -1.8988  -1.6432  -1.6432  -1.4713  -1.4713
     0.4852   0.4852   1.2264   1.2264   5.4650   5.4650   6.2880   6.2880
     6.7188   6.7188   7.7240   7.7240   8.4482   8.4482   9.1785   9.1785
     9.4421   9.4421   9.5970   9.5970  10.1626  10.1626  12.3105  12.3105
    13.3598  13.3598  14.0626  14.0626  14.3313  14.3313  15.1582  15.1582
    15.3736  15.3736  17.0972  17.0972  17.9634  17.9634  18.5084  18.5084
    21.2337  21.2337  22.1113  22.1113  22.5077  22.5078  22.6879  22.6879
    23.0749  23.0749  23.7662  23.7662  23.8725  23.8725  24.1234  24.1234
    24.2579  24.2579  24.6271  24.6271  25.1582  25.1582  25.5262  25.5262
    25.7155  25.7155  26.0565  26.0565  26.5430  26.5430  27.0058  27.0058
    27.0623  27.0623  27.9043  27.9043  28.0518  28.0518  28.3885  28.3885
    28.7429  28.7429  29.6766  29.6766  30.0350  30.0350  30.3521  30.3521
    30.7772  30.7772  31.0664  31.0664  31.1370  31.1370  31.5025  31.5026
    32.2446  32.2446  32.4154  32.4154  32.5602  32.5602  33.2986  33.2986
    33.4671  33.4671  33.7410  33.7410  34.0762  34.0762  35.1750  35.1751
    35.8911  35.8911  35.9968  35.9968  36.3074  36.3074  36.9014  36.9014
    36.9755  36.9755  37.2429  37.2429  37.5237  37.5237  37.7040  37.7040
    38.5801  38.5801  38.6849  38.6849  38.8257  38.8257  39.0256  39.0256
    39.2379  39.2379  39.8128  39.8128  40.0994  40.0994  40.9628  40.9628
    41.4031  41.4031  41.4543  41.4543  41.8291  41.8291  41.9072  41.9072
    42.1052  42.1052  42.8301  42.8301  42.9987  42.9987  43.9484  43.9484
    44.0618  44.0618  44.1181  44.1181  44.5422  44.5422  45.4203  45.4203
    45.5083  45.5083  45.5732  45.5732  45.8850  45.8850  46.2940  46.2940
    46.7062  46.7062  46.8541  46.8541  47.3703  47.3703  47.5873  47.5873
    47.7373  47.7373  48.3718  48.3718  48.5785  48.5785  48.9528  48.9528
    49.1963  49.1963  49.6930  49.6930  49.7425  49.7425  51.1549  51.1549
    51.3661  51.3661  51.7478  51.7478  51.8143  51.8143  51.9901  51.9901
    52.2379  52.2379  52.5675  52.5675  52.7739  52.7739  52.8357  52.8357
    52.9590  52.9590  53.5921  53.5921  53.7756  53.7756  54.2786  54.2786
    54.4834  54.4834  55.5744  55.5744  55.7776  55.7776  56.1306  56.1306
    56.7218  56.7218  57.2337  57.2337  57.3678  57.3678  57.5466  57.5466
    58.0769  58.0769  58.3231  58.3231  58.8131  58.8131  58.9433  58.9433
    59.1761  59.1761  59.4786  59.4786  59.7853  59.7853  59.9358  59.9358
    60.4847  60.4847  60.6055  60.6055  61.1509  61.1509  61.3039  61.3039
    61.3481  61.3481  61.9964  61.9964  62.1930  62.1930  62.3884  62.3884
    62.4961  62.4961  62.9019  62.9019  63.1518  63.1518  63.2669  63.2669
    64.0765  64.0765  64.3791  64.3791  64.6708  64.6708  64.8293  64.8293
    65.1149  65.1149  65.3897  65.3897  65.6896  65.6896  66.1767  66.1767
    66.3577  66.3577  66.8726  66.8726  67.1288  67.1288  67.2029  67.2029
    67.3585  67.3585  67.9981  67.9981  68.5375  68.5375  68.5974  68.5974
    68.6857  68.6857  69.0091  69.0091  69.2559  69.2559  69.3797  69.3797
    69.4818  69.4818  69.8337  69.8337  70.0163  70.0163  70.1700  70.1700
    70.2505  70.2505  70.4206  70.4206  70.7164  70.7164  70.8463  70.8463
    71.2416  71.2416  71.5768  71.5768  71.6181  71.6181  71.7138  71.7138
    71.9489  71.9489  72.3006  72.3006  72.4284  72.4284  72.6908  72.6908
    73.1707  73.1707  73.2271  73.2271  73.5093  73.5093  73.7455  73.7455
    73.9766  73.9766  74.0255  74.0255  74.0751  74.0751  74.4364  74.4364
    74.5175  74.5175  74.6064  74.6064  75.2403  75.2403  75.3802  75.3802
    75.8071  75.8071  75.8689  75.8689  75.8994  75.8994  76.2115  76.2115
    76.3090  76.3090  76.5074  76.5074  76.6142  76.6142  76.6305  76.6305
    76.7161  76.7161  77.0519  77.0520  77.1110  77.1110  77.2854  77.2854
    78.0858  78.0858  78.1524  78.1524  78.3460  78.3460  78.4103  78.4103
    79.0977  79.0977  79.4124  79.4124  79.6524  79.6524  80.2297  80.2297
    80.6353  80.6353  80.7132  80.7132  80.9072  80.9072  81.4591  81.4591
    81.7586  81.7586  82.4472  82.4472  82.5467  82.5467  82.7492  82.7492
    82.8327  82.8327  82.9902  82.9902  83.2068  83.2068  83.2692  83.2692
    83.5613  83.5613  84.3384  84.3384

          k = 0.0000-1.2925 0.3084 (  6680 PWs)   bands (ev):

   -37.0317 -37.0316 -37.0307 -37.0307 -37.0153 -37.0153 -37.0130 -37.0130
   -36.7944 -36.7944 -36.7335 -36.7335 -36.1410 -36.1410 -36.1399 -36.1399
   -36.1324 -36.1324 -36.1282 -36.1282 -36.1177 -36.1177 -36.1153 -36.1152
   -35.9059 -35.9059 -35.8769 -35.8769 -35.8261 -35.8261 -13.1977 -13.1977
   -13.1974 -13.1974 -13.1756 -13.1755 -13.1749 -13.1749 -10.2533 -10.2533
   -10.2495 -10.2495 -10.2150 -10.2150 -10.2114 -10.2114 -10.1833 -10.1833
   -10.1788 -10.1788  -1.9786  -1.9786  -1.6813  -1.6813  -1.4381  -1.4381
     0.5370   0.5370   1.2500   1.2500   5.4322   5.4322   6.3663   6.3663
     6.7813   6.7813   7.7413   7.7413   8.4589   8.4589   9.1517   9.1517
     9.4552   9.4552   9.6032   9.6032  10.1100  10.1100  12.4000  12.4000
    13.3953  13.3953  14.0595  14.0595  14.3422  14.3422  15.1736  15.1736
    15.3740  15.3740  17.0167  17.0167  17.9485  17.9485  18.5625  18.5625
    21.0809  21.0809  22.0638  22.0638  22.2449  22.2449  22.5711  22.5711
    22.9125  22.9125  23.6661  23.6661  23.8584  23.8584  24.1037  24.1038
    24.3632  24.3632  24.5953  24.5953  25.2881  25.2881  25.6085  25.6085
    25.9536  25.9536  26.0669  26.0669  26.5311  26.5311  27.0859  27.0859
    27.2154  27.2154  27.8049  27.8049  28.2131  28.2131  28.2624  28.2624
    28.6396  28.6396  29.4793  29.4793  30.0048  30.0048  30.3240  30.3240
    30.5222  30.5222  30.8458  30.8458  31.2545  31.2545  31.5012  31.5012
    32.1284  32.1284  32.3889  32.3889  32.6309  32.6309  33.5463  33.5463
    33.6346  33.6346  33.7773  33.7773  34.1987  34.1987  35.2471  35.2471
    35.8341  35.8341  36.1899  36.1899  36.2932  36.2932  37.0081  37.0081
    37.0811  37.0811  37.2454  37.2454  37.2896  37.2896  37.6560  37.6560
    38.4681  38.4681  38.7713  38.7713  38.8865  38.8865  39.1651  39.1651
    39.4922  39.4922  39.9773  39.9773  40.1416  40.1416  40.9413  40.9413
    41.3655  41.3655  41.5250  41.5250  41.7229  41.7229  41.8118  41.8118
    42.0611  42.0611  42.8904  42.8904  43.0444  43.0444  43.7154  43.7154
    44.0435  44.0435  44.1919  44.1919  44.5165  44.5165  45.4350  45.4351
    45.5267  45.5268  45.5921  45.5921  45.9576  45.9576  46.3002  46.3002
    46.7944  46.7944  46.9327  46.9327  47.3550  47.3550  47.6470  47.6470
    48.0054  48.0054  48.3716  48.3716  48.7792  48.7792  49.0377  49.0377
    49.2265  49.2265  49.7101  49.7101  49.7978  49.7978  50.8742  50.8742
    51.3489  51.3489  51.6199  51.6199  51.7208  51.7208  51.9076  51.9076
    52.1526  52.1526  52.6869  52.6869  52.7194  52.7194  52.9807  52.9807
    53.1135  53.1135  53.7089  53.7089  53.8010  53.8010  54.2705  54.2705
    54.5695  54.5695  55.4146  55.4146  55.9259  55.9259  56.1263  56.1263
    56.3795  56.3795  57.0817  57.0817  57.1230  57.1230  57.4895  57.4895
    58.0099  58.0099  58.2837  58.2837  58.6994  58.6994  58.9102  58.9102
    59.3702  59.3702  59.5013  59.5013  59.7327  59.7327  59.8349  59.8349
    60.2991  60.2991  60.5219  60.5219  60.8958  60.8958  60.9437  60.9437
    61.3176  61.3176  61.8547  61.8547  62.0329  62.0329  62.3330  62.3330
    62.5393  62.5393  62.7100  62.7100  63.2139  63.2139  63.3310  63.3310
    64.0641  64.0641  64.3240  64.3240  64.4773  64.4773  65.2312  65.2312
    65.4131  65.4131  65.5070  65.5070  66.0218  66.0218  66.2121  66.2121
    66.4175  66.4175  66.7155  66.7155  66.8654  66.8654  67.2168  67.2168
    67.4912  67.4912  68.0419  68.0419  68.4234  68.4234  68.5179  68.5179
    68.6183  68.6183  68.9554  68.9554  69.1893  69.1893  69.2885  69.2885
    69.4231  69.4231  69.7764  69.7764  69.8922  69.8922  69.9253  69.9253
    70.1829  70.1829  70.3738  70.3738  70.8411  70.8411  71.0557  71.0557
    71.1925  71.1925  71.3895  71.3895  71.7390  71.7390  71.8591  71.8591
    72.2569  72.2569  72.3222  72.3222  72.7837  72.7837  72.8155  72.8155
    72.8965  72.8965  73.1307  73.1307  73.2128  73.2128  73.4171  73.4171
    73.8524  73.8524  73.9032  73.9032  74.1877  74.1877  74.3040  74.3040
    74.3672  74.3672  74.6792  74.6792  75.2873  75.2873  75.4311  75.4311
    75.7741  75.7741  76.0949  76.0949  76.1450  76.1450  76.2456  76.2456
    76.3745  76.3745  76.6109  76.6109  76.6374  76.6374  76.7191  76.7191
    76.8746  76.8746  77.0324  77.0324  77.4171  77.4171  77.6623  77.6623
    78.1323  78.1323  78.2885  78.2885  78.3806  78.3806  78.4846  78.4846
    79.3818  79.3818  79.7395  79.7395  79.8289  79.8289  80.0330  80.0330
    80.3509  80.3509  80.6477  80.6477  80.7935  80.7935  81.3375  81.3375
    81.5710  81.5710  82.1612  82.1612  82.2707  82.2707  82.4916  82.4916
    82.7450  82.7450  82.9986  82.9986  83.1603  83.1603  83.5918  83.5918
    83.8844  83.8844  84.0092  84.0092

          k = 0.0000-1.2446 0.2970 (  6676 PWs)   bands (ev):

   -37.0316 -37.0316 -37.0282 -37.0282 -37.0149 -37.0149 -37.0127 -37.0127
   -36.7935 -36.7935 -36.7326 -36.7326 -36.1408 -36.1408 -36.1372 -36.1372
   -36.1310 -36.1310 -36.1286 -36.1286 -36.1178 -36.1178 -36.1144 -36.1144
   -35.9045 -35.9045 -35.8770 -35.8770 -35.8249 -35.8249 -13.1979 -13.1979
   -13.1975 -13.1975 -13.1757 -13.1756 -13.1748 -13.1748 -10.2530 -10.2530
   -10.2491 -10.2491 -10.2150 -10.2150 -10.2115 -10.2115 -10.1838 -10.1838
   -10.1793 -10.1793  -2.0703  -2.0703  -1.7317  -1.7317  -1.4098  -1.4098
     0.6053   0.6053   1.2817   1.2817   5.4053   5.4054   6.4492   6.4492
     6.8752   6.8752   7.7656   7.7656   8.4731   8.4731   9.1114   9.1114
     9.4731   9.4731   9.6122   9.6122  10.0557  10.0557  12.5040  12.5040
    13.4487  13.4487  14.0543  14.0543  14.3586  14.3586  15.1954  15.1954
    15.3735  15.3735  16.9097  16.9097  17.9331  17.9331  18.6323  18.6323
    20.8983  20.8983  21.8449  21.8449  22.1084  22.1084  22.4202  22.4202
    22.7121  22.7121  23.5179  23.5179  23.8315  23.8315  24.0581  24.0581
    24.3736  24.3736  24.6975  24.6975  25.3928  25.3928  25.6732  25.6732
    26.1067  26.1067  26.2537  26.2537  26.5057  26.5057  27.2009  27.2009
    27.4095  27.4095  27.7127  27.7127  28.0884  28.0884  28.4420  28.4420
    28.5772  28.5772  29.2601  29.2601  29.9125  29.9125  29.9897  29.9897
    30.1946  30.1946  30.9458  30.9458  31.4086  31.4086  31.5305  31.5305
    31.8974  31.8974  32.3430  32.3430  32.7818  32.7818  33.4865  33.4865
    33.7822  33.7822  33.9798  33.9798  34.3587  34.3587  35.4969  35.4969
    35.8018  35.8018  36.3761  36.3761  36.3990  36.3990  36.9393  36.9393
    37.0682  37.0682  37.1769  37.1769  37.3337  37.3337  37.6372  37.6372
    38.4594  38.4594  38.8448  38.8448  38.9684  38.9684  39.3307  39.3307
    39.7071  39.7071  40.0532  40.0532  40.1923  40.1923  40.9293  40.9293
    41.2976  41.2976  41.5145  41.5145  41.7321  41.7321  41.8331  41.8331
    42.0030  42.0030  42.9142  42.9142  43.1148  43.1148  43.4336  43.4336
    44.0163  44.0163  44.2784  44.2784  44.5552  44.5552  45.3868  45.3868
    45.4983  45.4983  45.6417  45.6417  45.9357  45.9357  46.5258  46.5258
    46.8576  46.8576  47.1079  47.1079  47.3355  47.3355  47.7135  47.7135
    48.2597  48.2597  48.4005  48.4005  48.9784  48.9784  49.1687  49.1687
    49.2734  49.2734  49.7137  49.7137  49.9131  49.9131  50.5867  50.5867
    51.2600  51.2600  51.4498  51.4498  51.6876  51.6876  51.8503  51.8503
    52.0657  52.0657  52.5652  52.5652  52.8328  52.8328  53.1332  53.1332
    53.2552  53.2552  53.6670  53.6670  54.0040  54.0040  54.2791  54.2791
    54.7446  54.7446  55.2510  55.2510  55.8556  55.8556  56.0740  56.0740
    56.1871  56.1871  56.7615  56.7615  57.0113  57.0113  57.4404  57.4404
    57.9462  57.9462  58.1834  58.1834  58.4537  58.4537  58.7799  58.7799
    59.2830  59.2830  59.6981  59.6981  59.7964  59.7964  59.8247  59.8247
    59.9687  59.9687  60.2272  60.2272  60.4647  60.4647  60.7339  60.7339
    61.3938  61.3938  61.6725  61.6725  61.9793  61.9793  62.1255  62.1255
    62.6651  62.6651  62.7746  62.7746  63.2021  63.2021  63.2954  63.2954
    64.1474  64.1474  64.2688  64.2688  64.4092  64.4092  65.1224  65.1224
    65.3260  65.3260  65.9269  65.9269  66.0740  66.0740  66.1642  66.1642
    66.6664  66.6664  66.7433  66.7433  66.9600  66.9600  67.1301  67.1301
    67.6967  67.6967  67.9797  67.9797  68.2047  68.2047  68.3674  68.3674
    68.6275  68.6275  68.8748  68.8748  69.1042  69.1042  69.2466  69.2466
    69.4518  69.4518  69.5230  69.5230  69.6148  69.6148  69.8638  69.8638
    70.1494  70.1494  70.5605  70.5605  70.9258  70.9258  71.0820  71.0820
    71.2211  71.2211  71.4063  71.4063  71.7330  71.7330  71.7772  71.7772
    72.3223  72.3223  72.4635  72.4635  72.6883  72.6883  72.7522  72.7522
    72.9319  72.9319  72.9359  72.9359  73.2206  73.2206  73.3306  73.3306
    73.5246  73.5246  73.8986  73.8986  74.1728  74.1728  74.3760  74.3760
    74.6012  74.6012  74.8409  74.8409  75.2284  75.2284  75.4526  75.4526
    75.7048  75.7048  76.0017  76.0017  76.3483  76.3483  76.4893  76.4893
    76.5929  76.5929  76.6125  76.6125  76.7539  76.7539  76.8945  76.8945
    76.9950  76.9950  77.0997  77.0997  77.5633  77.5633  78.0929  78.0929
    78.2990  78.2990  78.3970  78.3970  78.4818  78.4818  78.7719  78.7719
    79.4499  79.4499  79.6490  79.6491  79.8986  79.8986  80.0862  80.0862
    80.1751  80.1751  80.6370  80.6370  80.9969  80.9969  81.0785  81.0785
    81.6541  81.6541  81.9011  81.9011  82.0380  82.0380  82.1703  82.1703
    82.3812  82.3812  82.7984  82.7984  83.0849  83.0849  83.4918  83.4918
    83.7411  83.7411  84.1744  84.1744

          k = 0.0000-1.1968 0.2856 (  6674 PWs)   bands (ev):

   -37.0332 -37.0332 -37.0249 -37.0248 -37.0174 -37.0174 -37.0103 -37.0103
   -36.7930 -36.7930 -36.7323 -36.7323 -36.1416 -36.1416 -36.1366 -36.1366
   -36.1308 -36.1308 -36.1264 -36.1264 -36.1195 -36.1195 -36.1124 -36.1124
   -35.9037 -35.9037 -35.8771 -35.8771 -35.8244 -35.8244 -13.1980 -13.1980
   -13.1976 -13.1976 -13.1757 -13.1757 -13.1747 -13.1747 -10.2526 -10.2526
   -10.2485 -10.2485 -10.2151 -10.2151 -10.2117 -10.2117 -10.1843 -10.1843
   -10.1799 -10.1799  -2.1692  -2.1692  -1.7917  -1.7917  -1.3899  -1.3899
     0.6869   0.6869   1.3207   1.3207   5.3918   5.3918   6.5287   6.5287
     6.9999   6.9999   7.7970   7.7970   8.4900   8.4900   9.0577   9.0577
     9.4954   9.4954   9.6245   9.6245  10.0104  10.0104  12.6089  12.6089
    13.5221  13.5221  14.0458  14.0458  14.3818  14.3818  15.2234  15.2234
    15.3707  15.3707  16.7812  16.7812  17.9195  17.9195  18.7138  18.7138
    20.6970  20.6970  21.5572  21.5572  21.9900  21.9900  22.2488  22.2488
    22.5066  22.5066  23.3455  23.3455  23.7882  23.7882  23.9990  23.9990
    24.3165  24.3165  24.8415  24.8415  25.4505  25.4505  25.7111  25.7111
    26.2111  26.2111  26.4521  26.4521  26.5769  26.5769  27.3791  27.3791
    27.5384  27.5384  27.7292  27.7292  27.9584  27.9584  28.4668  28.4668
    28.7148  28.7148  29.0928  29.0929  29.5566  29.5566  29.7930  29.7930
    29.8758  29.8758  30.9055  30.9055  31.5905  31.5905  31.6191  31.6191
    31.8065  31.8065  32.1992  32.1992  32.9272  32.9272  33.4647  33.4647
    33.6953  33.6953  34.0901  34.0901  34.7318  34.7318  35.8321  35.8322
    35.9026  35.9026  36.3968  36.3968  36.5324  36.5324  36.7992  36.7992
    37.1128  37.1128  37.1755  37.1755  37.4662  37.4662  37.6337  37.6337
    38.5450  38.5450  38.9129  38.9129  39.0633  39.0633  39.4225  39.4225
    39.8270  39.8270  40.0554  40.0554  40.2858  40.2858  40.8818  40.8818
    41.3107  41.3107  41.5407  41.5407  41.6097  41.6097  41.9312  41.9312
    42.0915  42.0915  42.8916  42.8916  43.1505  43.1505  43.2572  43.2572
    44.0260  44.0260  44.2560  44.2560  44.6684  44.6684  45.3378  45.3378
    45.4531  45.4531  45.6882  45.6882  45.9801  45.9801  46.7229  46.7229
    46.9956  46.9956  47.2872  47.2872  47.3168  47.3168  47.8239  47.8239
    48.3570  48.3570  48.5458  48.5458  49.1522  49.1522  49.3131  49.3131
    49.3436  49.3436  49.7928  49.7928  50.0419  50.0419  50.3208  50.3208
    51.0939  51.0939  51.2605  51.2605  51.7167  51.7167  51.8192  51.8192
    51.9706  51.9706  52.4158  52.4158  52.9096  52.9096  53.2624  53.2624
    53.3308  53.3308  53.7089  53.7089  54.1663  54.1663  54.3012  54.3012
    54.9678  54.9678  55.1095  55.1095  55.5217  55.5217  55.9926  55.9926
    56.1246  56.1246  56.4948  56.4948  56.9043  56.9043  57.3962  57.3962
    57.8653  57.8653  58.0431  58.0431  58.2484  58.2484  58.5268  58.5268
    59.1234  59.1234  59.4052  59.4052  59.5651  59.5651  59.8088  59.8088
    59.8293  59.8293  60.0934  60.0934  60.3936  60.3936  60.5379  60.5379
    61.4579  61.4579  61.5673  61.5673  61.7237  61.7237  62.1079  62.1079
    62.6433  62.6433  62.9347  62.9347  63.1630  63.1630  63.2930  63.2930
    64.1610  64.1610  64.3033  64.3033  64.4718  64.4718  64.8807  64.8807
    65.0836  65.0836  65.7184  65.7184  65.8604  65.8605  66.5574  66.5574
    66.6185  66.6185  67.0047  67.0047  67.3021  67.3021  67.3464  67.3464
    67.5148  67.5148  67.9310  67.9310  68.1184  68.1184  68.1725  68.1725
    68.4875  68.4875  68.8730  68.8730  68.9622  68.9622  69.1227  69.1227
    69.3498  69.3498  69.4350  69.4350  69.7875  69.7875  69.8699  69.8699
    70.2569  70.2569  70.6048  70.6048  70.7537  70.7537  71.0260  71.0260
    71.1014  71.1014  71.5494  71.5494  71.6192  71.6192  71.8233  71.8233
    72.1182  72.1182  72.3372  72.3372  72.3657  72.3657  72.5859  72.5859
    72.7537  72.7537  73.0065  73.0065  73.2552  73.2552  73.5759  73.5759
    73.8952  73.8952  73.9684  73.9684  74.2542  74.2542  74.4524  74.4524
    74.5672  74.5672  74.9931  74.9931  75.4253  75.4253  75.5144  75.5144
    75.6699  75.6699  75.8180  75.8180  76.5880  76.5880  76.6050  76.6050
    76.6118  76.6119  76.7890  76.7890  76.9798  76.9798  77.0374  77.0374
    77.1361  77.1361  77.3269  77.3269  77.5789  77.5789  78.2189  78.2189
    78.2899  78.2899  78.3898  78.3898  78.9623  78.9623  79.2360  79.2360
    79.3344  79.3344  79.4517  79.4517  79.8579  79.8579  80.1232  80.1232
    80.3223  80.3223  80.6908  80.6908  80.8832  80.8832  81.2685  81.2685
    81.5033  81.5033  81.7440  81.7440  81.8845  81.8845  82.0704  82.0704
    82.1691  82.1691  82.2672  82.2672  83.1002  83.1002  83.1991  83.1991
    83.5999  83.5999  84.0669  84.0669

          k = 0.0000-1.1489 0.2742 (  6668 PWs)   bands (ev):

   -37.0326 -37.0326 -37.0242 -37.0242 -37.0156 -37.0156 -37.0085 -37.0085
   -36.7923 -36.7923 -36.7307 -36.7307 -36.1411 -36.1411 -36.1357 -36.1357
   -36.1298 -36.1298 -36.1256 -36.1256 -36.1177 -36.1177 -36.1102 -36.1102
   -35.9029 -35.9029 -35.8763 -35.8763 -35.8224 -35.8224 -13.1982 -13.1982
   -13.1978 -13.1978 -13.1758 -13.1758 -13.1746 -13.1746 -10.2521 -10.2521
   -10.2479 -10.2478 -10.2151 -10.2151 -10.2118 -10.2118 -10.1850 -10.1850
   -10.1807 -10.1807  -2.2725  -2.2725  -1.8588  -1.8588  -1.3797  -1.3797
     0.7780   0.7780   1.3661   1.3661   5.3961   5.3961   6.6046   6.6046
     7.1480   7.1480   7.8358   7.8358   8.5081   8.5081   8.9940   8.9940
     9.5217   9.5217   9.6409   9.6409   9.9803   9.9803  12.7036  12.7036
    13.6150  13.6150  14.0332  14.0332  14.4141  14.4141  15.2580  15.2580
    15.3646  15.3646  16.6371  16.6371  17.9096  17.9096  18.8050  18.8050
    20.4836  20.4836  21.2717  21.2717  21.8140  21.8140  22.0747  22.0747
    22.3136  22.3136  23.1576  23.1576  23.7214  23.7214  23.9332  23.9332
    24.2473  24.2473  24.9378  24.9378  25.4615  25.4615  25.7130  25.7130
    26.2955  26.2955  26.4677  26.4677  26.9005  26.9005  27.5195  27.5195
    27.6304  27.6304  27.8435  27.8435  27.9405  27.9405  28.3992  28.3992
    28.8991  28.8991  28.9557  28.9557  29.2229  29.2229  29.4528  29.4528
    29.7920  29.7920  30.7300  30.7300  31.3256  31.3256  31.8818  31.8818
    31.9572  31.9572  32.1691  32.1691  32.9296  32.9296  33.4098  33.4098
    33.7841  33.7841  34.0347  34.0347  35.1708  35.1708  36.0566  36.0566
    36.1611  36.1611  36.2417  36.2418  36.6342  36.6342  36.9064  36.9064
    37.1456  37.1456  37.1710  37.1710  37.6576  37.6576  37.7026  37.7026
    38.6673  38.6673  38.9870  38.9870  39.1559  39.1559  39.3591  39.3591
    39.9129  39.9129  40.0124  40.0124  40.4262  40.4262  40.7910  40.7910
    41.4004  41.4004  41.4903  41.4903  41.6649  41.6649  41.8854  41.8854
    42.3489  42.3489  42.6869  42.6869  43.1880  43.1880  43.3452  43.3452
    44.0183  44.0183  44.2023  44.2023  44.8046  44.8046  45.3292  45.3292
    45.4282  45.4282  45.7338  45.7338  46.0598  46.0598  46.8374  46.8374
    47.2226  47.2226  47.2748  47.2748  47.4744  47.4744  47.9839  47.9839
    48.3906  48.3906  48.6906  48.6906  49.2943  49.2943  49.4201  49.4201
    49.4535  49.4535  49.9255  49.9255  50.1308  50.1308  50.1970  50.1970
    50.8846  50.8847  51.0882  51.0882  51.7369  51.7369  51.8120  51.8120
    51.8943  51.8943  52.2707  52.2707  52.8772  52.8772  53.3802  53.3802
    53.4275  53.4275  53.8039  53.8039  54.1780  54.1780  54.3009  54.3009
    54.9463  54.9463  55.1871  55.1871  55.3568  55.3568  55.7970  55.7970
    55.9496  55.9496  56.4281  56.4281  56.7423  56.7423  57.3368  57.3368
    57.7419  57.7419  57.9535  57.9535  58.0787  58.0787  58.2330  58.2330
    58.7532  58.7532  58.9793  58.9793  59.1780  59.1780  59.5274  59.5274
    59.8517  59.8517  60.2372  60.2372  60.3659  60.3659  60.5098  60.5098
    61.2045  61.2045  61.5767  61.5767  61.7321  61.7321  62.1229  62.1229
    62.4054  62.4054  62.8795  62.8795  63.3396  63.3396  63.4937  63.4937
    64.0191  64.0191  64.3074  64.3074  64.5309  64.5310  64.5768  64.5768
    64.9741  64.9741  65.4245  65.4245  65.6655  65.6655  66.4459  66.4459
    66.9024  66.9024  67.0963  67.0963  67.1394  67.1394  67.3858  67.3858
    67.5974  67.5974  67.7892  67.7892  68.0545  68.0545  68.1118  68.1118
    68.4829  68.4829  68.8110  68.8110  68.9178  68.9178  68.9493  68.9493
    69.3708  69.3708  69.7041  69.7041  69.9108  69.9108  70.1016  70.1016
    70.3270  70.3270  70.4276  70.4276  70.5896  70.5896  70.8264  70.8264
    70.9313  70.9313  71.3984  71.3984  71.5602  71.5602  71.6218  71.6218
    71.8768  71.8768  72.0689  72.0689  72.3274  72.3274  72.5482  72.5482
    72.8823  72.8823  73.0124  73.0124  73.4434  73.4434  73.8306  73.8306
    74.0356  74.0356  74.1467  74.1467  74.4053  74.4053  74.5371  74.5371
    74.7205  74.7205  75.0546  75.0546  75.4745  75.4745  75.7482  75.7482
    75.7951  75.7952  75.8822  75.8822  76.6084  76.6084  76.6152  76.6152
    76.7563  76.7563  76.8388  76.8388  77.0997  77.0997  77.1956  77.1956
    77.3747  77.3747  77.4648  77.4648  77.6175  77.6175  78.1799  78.1799
    78.2170  78.2170  78.4783  78.4783  79.0640  79.0640  79.3672  79.3672
    79.4833  79.4833  79.8238  79.8238  79.8812  79.8812  80.0430  80.0430
    80.5166  80.5166  80.5674  80.5674  80.8940  80.8940  81.1138  81.1138
    81.3777  81.3777  81.5039  81.5039  81.6848  81.6849  81.8781  81.8781
    82.2154  82.2154  82.6797  82.6797  82.8995  82.8995  83.0709  83.0709
    83.6829  83.6829  83.8680  83.8680

          k = 0.0000-1.1010 0.2627 (  6655 PWs)   bands (ev):

   -37.0305 -37.0305 -37.0206 -37.0206 -37.0135 -37.0135 -37.0054 -37.0054
   -36.7895 -36.7895 -36.7280 -36.7280 -36.1392 -36.1392 -36.1331 -36.1330
   -36.1273 -36.1273 -36.1218 -36.1218 -36.1154 -36.1154 -36.1073 -36.1073
   -35.9004 -35.9004 -35.8729 -35.8729 -35.8201 -35.8201 -13.1985 -13.1985
   -13.1980 -13.1980 -13.1759 -13.1758 -13.1745 -13.1744 -10.2516 -10.2516
   -10.2471 -10.2471 -10.2151 -10.2151 -10.2120 -10.2120 -10.1858 -10.1858
   -10.1816 -10.1816  -2.3782  -2.3782  -1.9308  -1.9308  -1.3793  -1.3793
     0.8751   0.8751   1.4171   1.4171   5.4213   5.4213   6.6800   6.6800
     7.3094   7.3094   7.8821   7.8821   8.5247   8.5247   8.9290   8.9290
     9.5515   9.5515   9.6624   9.6624   9.9673   9.9673  12.7826  12.7826
    13.7218  13.7218  14.0154  14.0154  14.4588  14.4588  15.2958  15.2958
    15.3555  15.3555  16.4838  16.4838  17.9038  17.9038  18.9040  18.9040
    20.2635  20.2635  21.0039  21.0039  21.5871  21.5871  21.9026  21.9026
    22.1348  22.1348  22.9615  22.9615  23.6162  23.6162  23.8627  23.8627
    24.1754  24.1754  24.9499  24.9499  25.4320  25.4320  25.6771  25.6771
    26.2914  26.2914  26.6130  26.6130  27.2241  27.2241  27.5239  27.5239
    27.7548  27.7548  27.9644  27.9644  28.0926  28.0926  28.3711  28.3711
    28.6461  28.6461  28.9170  28.9170  29.0960  29.0960  29.2774  29.2774
    29.8101  29.8101  30.5642  30.5642  31.0346  31.0346  31.6729  31.6729
    32.1859  32.1859  32.4604  32.4604  32.8723  32.8723  33.4532  33.4532
    33.7287  33.7287  34.1204  34.1204  35.5702  35.5702  35.8109  35.8109
    36.4466  36.4466  36.5441  36.5442  36.6905  36.6905  36.8857  36.8857
    37.2290  37.2290  37.3271  37.3271  37.8428  37.8428  37.8894  37.8894
    38.7516  38.7516  39.0668  39.0668  39.1968  39.1968  39.2760  39.2760
    39.9512  39.9513  40.0274  40.0274  40.4856  40.4856  40.7349  40.7349
    41.2520  41.2520  41.6659  41.6659  41.8322  41.8322  41.8719  41.8719
    42.4100  42.4100  42.5844  42.5844  43.3674  43.3674  43.4871  43.4871
    43.9074  43.9075  44.2458  44.2458  44.9298  44.9298  45.3295  45.3295
    45.4755  45.4755  45.7835  45.7835  46.1417  46.1417  46.9220  46.9220
    47.2377  47.2377  47.4686  47.4686  47.6235  47.6235  48.1831  48.1831
    48.4219  48.4219  48.7666  48.7666  49.3884  49.3884  49.5125  49.5125
    49.6007  49.6007  49.8470  49.8470  50.2328  50.2328  50.3722  50.3722
    50.6675  50.6675  50.9896  50.9896  51.7163  51.7163  51.7562  51.7563
    51.8883  51.8883  52.1622  52.1622  52.7791  52.7791  53.4975  53.4975
    53.5494  53.5494  53.8746  53.8746  53.9806  53.9806  54.2483  54.2483
    54.7010  54.7010  55.2116  55.2116  55.5659  55.5659  55.6658  55.6658
    55.7815  55.7815  56.3686  56.3686  56.5661  56.5661  57.2278  57.2278
    57.5034  57.5034  57.8531  57.8531  57.9695  57.9695  58.0519  58.0519
    58.1749  58.1749  58.7654  58.7654  58.8568  58.8568  59.2236  59.2236
    59.8615  59.8615  60.0535  60.0535  60.4585  60.4585  60.5822  60.5822
    60.8986  60.8986  61.6457  61.6457  61.6830  61.6830  62.1647  62.1647
    62.2353  62.2353  62.7365  62.7365  63.5787  63.5787  63.7447  63.7447
    63.8707  63.8707  63.9926  63.9926  64.3719  64.3719  64.4423  64.4423
    65.1235  65.1235  65.2602  65.2602  65.5425  65.5425  66.2617  66.2617
    66.5931  66.5931  66.8163  66.8163  67.0278  67.0278  67.4363  67.4363
    67.4929  67.4929  67.7301  67.7301  67.9058  67.9058  68.0124  68.0124
    68.6737  68.6737  68.8061  68.8061  68.9277  68.9277  69.1170  69.1170
    69.5438  69.5438  69.8523  69.8523  70.0027  70.0027  70.0939  70.0939
    70.2420  70.2420  70.4140  70.4140  70.4937  70.4937  70.7587  70.7587
    70.8360  70.8360  71.0209  71.0209  71.2138  71.2138  71.4819  71.4819
    71.5790  71.5790  72.0617  72.0617  72.5011  72.5011  72.6658  72.6658
    73.0463  73.0463  73.0859  73.0859  73.5365  73.5365  73.9972  73.9972
    74.0712  74.0712  74.2246  74.2246  74.5013  74.5013  74.6715  74.6715
    75.1478  75.1478  75.3024  75.3024  75.4531  75.4531  75.8997  75.8997
    76.0257  76.0257  76.1147  76.1148  76.5967  76.5967  76.6168  76.6168
    76.6383  76.6383  76.8506  76.8506  77.0812  77.0812  77.1977  77.1977
    77.4334  77.4334  77.8283  77.8283  77.9441  77.9441  78.0464  78.0464
    78.3179  78.3179  78.6501  78.6501  78.7207  78.7207  79.5226  79.5226
    79.6512  79.6512  79.7095  79.7095  79.8851  79.8851  80.2484  80.2484
    80.4611  80.4611  80.6600  80.6600  80.8827  80.8827  80.9211  80.9211
    81.3083  81.3083  81.5063  81.5063  81.7010  81.7010  81.9022  81.9022
    82.5674  82.5674  82.6976  82.6976  82.9616  82.9616  83.2898  83.2898
    83.5704  83.5704  83.8771  83.8771

          k = 0.0000-1.0532 0.2513 (  6662 PWs)   bands (ev):

   -37.0331 -37.0331 -37.0222 -37.0222 -37.0161 -37.0161 -37.0044 -37.0044
   -36.7915 -36.7915 -36.7288 -36.7288 -36.1417 -36.1417 -36.1354 -36.1354
   -36.1293 -36.1293 -36.1224 -36.1224 -36.1175 -36.1175 -36.1062 -36.1062
   -35.9025 -35.9025 -35.8746 -35.8746 -35.8205 -35.8205 -13.1988 -13.1988
   -13.1983 -13.1983 -13.1759 -13.1759 -13.1744 -13.1743 -10.2510 -10.2510
   -10.2464 -10.2464 -10.2151 -10.2151 -10.2122 -10.2122 -10.1867 -10.1867
   -10.1825 -10.1825  -2.4849  -2.4849  -2.0057  -2.0057  -1.3885  -1.3885
     0.9742   0.9742   1.4737   1.4737   5.4689   5.4689   6.7579   6.7579
     7.4719   7.4719   7.9358   7.9358   8.5366   8.5366   8.8763   8.8763
     9.5843   9.5843   9.6900   9.6900   9.9704   9.9704  12.8446  12.8446
    13.8288  13.8288  13.9934  13.9934  14.5193  14.5193  15.3131  15.3131
    15.3643  15.3643  16.3286  16.3286  17.9023  17.9023  19.0065  19.0065
    20.0397  20.0397  20.7614  20.7614  21.3350  21.3350  21.7222  21.7222
    21.9701  21.9701  22.7582  22.7582  23.4666  23.4666  23.7820  23.7820
    24.1001  24.1001  24.8611  24.8611  25.3641  25.3641  25.6171  25.6171
    26.3231  26.3231  26.7588  26.7588  27.4765  27.4765  27.5327  27.5327
    27.8146  27.8146  28.0111  28.0111  28.2518  28.2518  28.4005  28.4006
    28.4818  28.4818  28.7351  28.7351  29.0583  29.0583  29.2269  29.2269
    29.9884  29.9884  30.4279  30.4279  30.8083  30.8083  31.3960  31.3960
    32.1486  32.1486  32.7634  32.7634  33.0817  33.0817  33.4507  33.4507
    33.5786  33.5786  34.3754  34.3754  35.3639  35.3639  36.1201  36.1201
    36.5681  36.5681  36.6564  36.6564  36.7383  36.7383  37.0341  37.0341
    37.3168  37.3168  37.6713  37.6713  37.9810  37.9810  38.1200  38.1200
    38.7510  38.7510  39.1247  39.1247  39.2458  39.2458  39.3069  39.3069
    39.9296  39.9296  40.0676  40.0676  40.4276  40.4276  40.7622  40.7622
    41.1379  41.1379  41.7823  41.7823  41.8357  41.8357  42.0155  42.0155
    42.3033  42.3033  42.7719  42.7719  43.5308  43.5308  43.6751  43.6751
    43.8417  43.8417  44.3384  44.3384  45.0313  45.0313  45.3500  45.3500
    45.5819  45.5819  45.8402  45.8402  46.2076  46.2076  46.9895  46.9895
    47.2033  47.2033  47.6724  47.6724  47.7723  47.7723  48.3566  48.3566
    48.4705  48.4705  48.8157  48.8157  49.3863  49.3863  49.6029  49.6029
    49.6945  49.6945  49.8926  49.8926  50.2655  50.2655  50.3447  50.3447
    50.7346  50.7346  51.0052  51.0052  51.6399  51.6399  51.7225  51.7225
    51.8631  51.8631  52.1245  52.1245  52.6806  52.6806  53.5100  53.5100
    53.5861  53.5861  53.7313  53.7313  53.9088  53.9088  54.1753  54.1753
    54.4081  54.4081  55.1657  55.1657  55.5371  55.5371  55.6860  55.6860
    55.9550  55.9550  56.2177  56.2177  56.4470  56.4470  56.9751  56.9751
    57.2896  57.2896  57.4046  57.4046  57.7940  57.7940  58.0028  58.0028
    58.1361  58.1361  58.3935  58.3935  58.7656  58.7656  58.9211  58.9211
    59.7912  59.7912  59.8537  59.8537  60.3435  60.3435  60.5831  60.5831
    60.8430  60.8430  61.3964  61.3964  61.5853  61.5853  62.2473  62.2473
    62.2858  62.2858  62.6379  62.6380  63.5419  63.5419  63.6534  63.6534
    63.8534  63.8534  63.9475  63.9475  64.1956  64.1956  64.3763  64.3763
    65.1970  65.1970  65.2442  65.2442  65.6057  65.6057  66.0320  66.0320
    66.2354  66.2354  66.3956  66.3956  66.7427  66.7427  67.0482  67.0482
    67.3423  67.3423  67.5525  67.5525  67.8876  67.8876  68.2292  68.2292
    68.5749  68.5749  68.8499  68.8499  68.9214  68.9214  69.3317  69.3317
    69.4081  69.4081  69.6305  69.6305  69.9754  69.9754  70.0634  70.0634
    70.2571  70.2571  70.5280  70.5280  70.5927  70.5927  70.6329  70.6329
    70.7310  70.7310  70.9251  70.9251  71.2442  71.2442  71.3757  71.3757
    71.4592  71.4592  72.1710  72.1710  72.4712  72.4712  72.6114  72.6114
    73.3087  73.3087  73.3977  73.3977  73.5772  73.5772  73.9565  73.9565
    74.1409  74.1409  74.2317  74.2317  74.7552  74.7552  74.8954  74.8954
    75.3035  75.3035  75.5091  75.5091  75.7105  75.7105  75.9378  75.9378
    76.0691  76.0691  76.3389  76.3389  76.4571  76.4571  76.6205  76.6205
    76.6341  76.6341  76.8342  76.8342  77.2809  77.2810  77.3514  77.3514
    77.4556  77.4556  77.8023  77.8023  78.1559  78.1559  78.2765  78.2765
    78.3245  78.3245  78.6518  78.6518  78.9148  78.9148  79.0799  79.0799
    79.6167  79.6167  79.6984  79.6984  79.8320  79.8320  80.1664  80.1664
    80.3001  80.3001  80.6325  80.6325  80.9584  80.9584  81.3078  81.3078
    81.5883  81.5883  81.6320  81.6320  81.7526  81.7526  82.1046  82.1046
    82.6913  82.6913  82.8673  82.8673  83.0672  83.0672  83.2967  83.2967
    83.6390  83.6390  84.0793  84.0793

          k = 0.0000-1.0053 0.2399 (  6655 PWs)   bands (ev):

   -37.0334 -37.0334 -37.0188 -37.0188 -37.0164 -37.0164 -37.0012 -37.0012
   -36.7896 -36.7896 -36.7276 -36.7276 -36.1423 -36.1423 -36.1348 -36.1348
   -36.1261 -36.1261 -36.1193 -36.1193 -36.1178 -36.1178 -36.1034 -36.1034
   -35.9008 -35.9008 -35.8726 -35.8726 -35.8197 -35.8197 -13.1991 -13.1991
   -13.1986 -13.1986 -13.1760 -13.1759 -13.1743 -13.1742 -10.2504 -10.2504
   -10.2457 -10.2456 -10.2151 -10.2151 -10.2123 -10.2123 -10.1876 -10.1876
   -10.1836 -10.1836  -2.5914  -2.5914  -2.0821  -2.0821  -1.4064  -1.4064
     1.0713   1.0713   1.5363   1.5363   5.5399   5.5399   6.8400   6.8400
     7.6216   7.6216   7.9945   7.9945   8.5458   8.5458   8.8504   8.8504
     9.6196   9.6196   9.7244   9.7244   9.9873   9.9873  12.8917  12.8917
    13.9005  13.9005  13.9882  13.9882  14.5988  14.5988  15.2875  15.2875
    15.4116  15.4116  16.1803  16.1803  17.9063  17.9063  19.1062  19.1062
    19.8221  19.8221  20.5507  20.5507  21.0756  21.0756  21.5304  21.5304
    21.8225  21.8225  22.5548  22.5548  23.2762  23.2762  23.6840  23.6840
    24.0150  24.0150  24.6907  24.6907  25.2645  25.2645  25.5574  25.5574
    26.4154  26.4154  26.8253  26.8253  27.4599  27.4599  27.6099  27.6099
    27.7504  27.7504  28.0335  28.0335  28.1544  28.1544  28.5344  28.5344
    28.6542  28.6543  28.8280  28.8280  28.9751  28.9751  29.1587  29.1587
    30.2191  30.2191  30.2982  30.2982  30.7775  30.7775  31.1323  31.1323
    31.9408  31.9408  33.0600  33.0600  33.1403  33.1403  33.4731  33.4731
    33.7301  33.7301  34.6245  34.6245  35.0450  35.0450  36.3724  36.3724
    36.5917  36.5917  36.6708  36.6708  36.7123  36.7123  37.4271  37.4271
    37.4717  37.4717  37.9380  37.9380  38.1129  38.1129  38.3525  38.3525
    38.8308  38.8308  39.1793  39.1793  39.3287  39.3287  39.3904  39.3904
    39.8335  39.8335  40.1189  40.1189  40.3466  40.3466  40.8169  40.8169
    41.1320  41.1320  41.6811  41.6811  41.8049  41.8049  42.1467  42.1467
    42.4648  42.4648  42.9849  42.9849  43.5406  43.5406  43.7537  43.7537
    44.1251  44.1251  44.4464  44.4464  45.1095  45.1095  45.4224  45.4224
    45.7068  45.7068  45.9094  45.9094  46.2468  46.2468  47.0362  47.0362
    47.1746  47.1746  47.7743  47.7743  47.9815  47.9815  48.4262  48.4262
    48.5496  48.5496  48.9165  48.9165  49.3115  49.3115  49.6970  49.6970
    49.7701  49.7701  50.0276  50.0276  50.1458  50.1458  50.2441  50.2441
    50.9469  50.9469  51.1278  51.1278  51.5868  51.5868  51.7146  51.7146
    51.8329  51.8329  52.1274  52.1274  52.6165  52.6165  53.1430  53.1430
    53.4190  53.4190  53.6850  53.6850  53.9700  53.9700  54.1528  54.1528
    54.1948  54.1948  55.0290  55.0290  55.4033  55.4033  55.6745  55.6745
    56.0656  56.0656  56.1530  56.1530  56.3980  56.3980  56.7118  56.7118
    56.8802  56.8802  57.2171  57.2171  57.8045  57.8045  57.8640  57.8640
    57.9854  57.9854  58.3710  58.3710  58.6415  58.6415  58.7268  58.7268
    59.5211  59.5211  59.7905  59.7905  60.1845  60.1845  60.3480  60.3480
    60.9614  60.9614  61.0437  61.0437  61.4478  61.4478  62.2447  62.2447
    62.2808  62.2808  62.6461  62.6461  63.3664  63.3664  63.4879  63.4879
    63.7822  63.7822  63.9457  63.9457  64.0597  64.0597  64.5617  64.5617
    65.1779  65.1779  65.2731  65.2731  65.6722  65.6722  65.7808  65.7809
    65.9714  65.9714  66.1305  66.1305  66.3556  66.3556  66.6625  66.6625
    66.9590  66.9590  67.6404  67.6404  67.7319  67.7319  68.2715  68.2715
    68.3480  68.3480  68.6609  68.6609  68.7802  68.7802  69.1591  69.1591
    69.2703  69.2703  69.3474  69.3474  69.7346  69.7346  69.8844  69.8844
    70.2498  70.2498  70.4819  70.4819  70.6661  70.6661  70.9429  70.9429
    70.9917  70.9917  71.1400  71.1400  71.2529  71.2529  71.4970  71.4970
    71.6585  71.6585  72.2614  72.2614  72.4303  72.4303  72.6216  72.6216
    73.4242  73.4242  73.5884  73.5884  73.7738  73.7738  73.9148  73.9148
    74.1422  74.1422  74.4412  74.4412  74.7911  74.7911  75.0260  75.0260
    75.2938  75.2938  75.6787  75.6787  75.7198  75.7198  76.0243  76.0243
    76.2218  76.2218  76.4900  76.4900  76.5259  76.5259  76.6190  76.6191
    76.6608  76.6608  77.1054  77.1054  77.3476  77.3476  77.4551  77.4551
    77.6245  77.6245  77.6968  77.6968  77.8003  77.8003  78.2862  78.2862
    78.5540  78.5540  78.8905  78.8905  79.0759  79.0759  79.2355  79.2355
    79.4405  79.4405  79.5367  79.5367  79.8153  79.8153  79.8397  79.8397
    80.4428  80.4428  80.5326  80.5326  80.9946  80.9946  81.4379  81.4379
    81.7964  81.7964  82.0141  82.0141  82.1776  82.1776  82.3123  82.3123
    82.7373  82.7373  82.9012  82.9012  83.2034  83.2034  83.6914  83.6914
    83.8387  83.8387  84.0455  84.0455

          k = 0.0000-0.9574 0.2285 (  6657 PWs)   bands (ev):

   -37.0327 -37.0327 -37.0198 -37.0198 -37.0166 -37.0166 -37.0020 -37.0020
   -36.7889 -36.7889 -36.7289 -36.7289 -36.1417 -36.1417 -36.1343 -36.1343
   -36.1262 -36.1262 -36.1213 -36.1213 -36.1174 -36.1174 -36.1048 -36.1048
   -35.8998 -35.8998 -35.8728 -35.8728 -35.8215 -35.8215 -13.1994 -13.1994
   -13.1989 -13.1989 -13.1760 -13.1760 -13.1742 -13.1741 -10.2498 -10.2498
   -10.2449 -10.2449 -10.2151 -10.2151 -10.2124 -10.2124 -10.1886 -10.1886
   -10.1846 -10.1846  -2.6966  -2.6966  -2.1587  -2.1587  -1.4321  -1.4321
     1.1623   1.1623   1.6061   1.6061   5.6342   5.6342   6.9272   6.9272
     7.7426   7.7426   8.0506   8.0506   8.5702   8.5702   8.8569   8.8569
     9.6571   9.6571   9.7664   9.7664  10.0163  10.0163  12.9261  12.9261
    13.8793  13.8793  14.0449  14.0449  14.6924  14.6924  15.2454  15.2454
    15.4691  15.4691  16.0485  16.0485  17.9136  17.9136  19.1783  19.1783
    19.6363  19.6363  20.3771  20.3771  20.8170  20.8170  21.3291  21.3291
    21.6926  21.6926  22.3497  22.3497  23.0533  23.0533  23.5611  23.5611
    23.9020  23.9020  24.4887  24.4888  25.1488  25.1488  25.4977  25.4977
    26.5367  26.5367  26.7556  26.7556  27.2539  27.2539  27.5839  27.5839
    27.6657  27.6657  27.9874  27.9874  28.2283  28.2283  28.6744  28.6744
    28.9050  28.9050  28.9525  28.9525  28.9895  28.9895  29.1684  29.1684
    30.0349  30.0349  30.6139  30.6139  30.8780  30.8780  30.9555  30.9555
    31.7363  31.7363  32.8041  32.8041  33.3544  33.3544  33.8034  33.8034
    33.9950  33.9950  34.6056  34.6056  34.9837  34.9837  36.1955  36.1955
    36.5357  36.5357  36.6498  36.6498  37.0804  37.0804  37.5437  37.5437
    37.8022  37.8022  37.9216  37.9217  38.5277  38.5277  38.5908  38.5908
    39.0168  39.0168  39.2194  39.2195  39.3154  39.3154  39.5554  39.5554
    39.6851  39.6851  40.1841  40.1841  40.3130  40.3130  40.8614  40.8614
    41.2231  41.2231  41.5314  41.5314  41.8230  41.8230  42.2420  42.2420
    42.6562  42.6562  43.1828  43.1828  43.5629  43.5629  43.8916  43.8916
    44.4624  44.4624  44.5578  44.5578  45.1997  45.1997  45.5304  45.5304
    45.8142  45.8142  45.9986  45.9986  46.2617  46.2617  47.0612  47.0612
    47.1554  47.1554  47.8143  47.8143  48.1768  48.1768  48.4615  48.4616
    48.6252  48.6252  48.9600  48.9600  49.3579  49.3579  49.7642  49.7642
    49.8394  49.8394  49.9511  49.9511  50.1439  50.1439  50.2287  50.2287
    51.0115  51.0115  51.3031  51.3031  51.6015  51.6015  51.7269  51.7269
    51.8327  51.8327  52.2059  52.2059  52.5716  52.5716  52.7136  52.7136
    53.0768  53.0768  53.5020  53.5020  53.9787  53.9787  54.1179  54.1179
    54.2849  54.2849  54.8757  54.8757  55.1255  55.1255  55.4809  55.4809
    55.8748  55.8748  56.0561  56.0561  56.2856  56.2856  56.7432  56.7432
    56.8364  56.8364  57.1978  57.1978  57.5099  57.5099  57.8640  57.8640
    57.9135  57.9135  58.4427  58.4427  58.5136  58.5136  58.7363  58.7363
    59.2503  59.2503  59.6544  59.6544  60.0165  60.0165  60.0956  60.0956
    60.6331  60.6331  61.0224  61.0224  61.3187  61.3187  61.9997  61.9997
    62.2268  62.2268  62.7130  62.7130  63.2618  63.2618  63.3400  63.3400
    63.7134  63.7134  63.8525  63.8525  64.0102  64.0102  64.7309  64.7309
    65.1621  65.1621  65.2765  65.2765  65.3120  65.3120  65.6794  65.6794
    65.7930  65.7930  65.9296  65.9296  66.2582  66.2582  66.4142  66.4142
    66.6253  66.6253  67.4836  67.4836  67.6875  67.6875  68.0082  68.0082
    68.0477  68.0477  68.3512  68.3512  68.5313  68.5313  68.7572  68.7572
    68.9903  68.9903  69.0369  69.0369  69.3275  69.3275  70.1688  70.1688
    70.2541  70.2541  70.3694  70.3694  70.5463  70.5463  71.0152  71.0152
    71.3321  71.3321  71.4227  71.4227  71.5796  71.5796  71.8907  71.8907
    71.9763  71.9763  72.3580  72.3580  72.4949  72.4949  72.7513  72.7513
    73.3852  73.3852  73.5803  73.5803  73.8288  73.8288  74.0760  74.0760
    74.1605  74.1605  74.3629  74.3629  74.8410  74.8410  75.1673  75.1673
    75.2900  75.2900  75.6931  75.6931  75.9004  75.9004  76.0942  76.0942
    76.3394  76.3394  76.4993  76.4993  76.6222  76.6222  76.6462  76.6462
    76.9096  76.9096  76.9871  76.9871  77.3330  77.3330  77.3840  77.3841
    77.6298  77.6298  77.7141  77.7141  78.0342  78.0342  78.4660  78.4660
    78.6144  78.6144  78.8255  78.8255  79.1119  79.1119  79.4702  79.4702
    79.5326  79.5326  79.6647  79.6647  79.7178  79.7178  79.8071  79.8071
    80.4971  80.4971  80.6361  80.6361  81.0564  81.0564  81.2183  81.2183
    81.8104  81.8104  82.4097  82.4097  82.5637  82.5637  82.7292  82.7292
    82.9215  82.9215  83.0698  83.0698  83.5038  83.5038  83.7903  83.7903
    83.9781  83.9781  84.1886  84.1886

          k = 0.0000-0.9095 0.2170 (  6649 PWs)   bands (ev):

   -37.0313 -37.0313 -37.0181 -37.0181 -37.0148 -37.0148 -36.9999 -36.9999
   -36.7877 -36.7877 -36.7266 -36.7266 -36.1408 -36.1408 -36.1322 -36.1322
   -36.1247 -36.1247 -36.1194 -36.1194 -36.1158 -36.1158 -36.1025 -36.1025
   -35.8986 -35.8986 -35.8713 -35.8713 -35.8189 -35.8189 -13.1998 -13.1998
   -13.1992 -13.1992 -13.1760 -13.1760 -13.1740 -13.1740 -10.2492 -10.2492
   -10.2443 -10.2442 -10.2150 -10.2150 -10.2125 -10.2125 -10.1896 -10.1896
   -10.1857 -10.1857  -2.7997  -2.7997  -2.2344  -2.2344  -1.4644  -1.4644
     1.2437   1.2437   1.6841   1.6841   5.7513   5.7513   7.0202   7.0202
     7.8203   7.8203   8.0965   8.0965   8.6344   8.6344   8.8923   8.8923
     9.6963   9.6963   9.8171   9.8171  10.0562  10.0562  12.9499  12.9499
    13.8196  13.8196  14.1047  14.1047  14.7821  14.7821  15.2010  15.2010
    15.5288  15.5288  15.9447  15.9447  17.9236  17.9236  19.1474  19.1474
    19.5618  19.5618  20.2440  20.2440  20.5659  20.5659  21.1223  21.1223
    21.5811  21.5811  22.1476  22.1476  22.8064  22.8064  23.4097  23.4097
    23.7330  23.7330  24.3139  24.3139  25.0353  25.0353  25.4249  25.4249
    26.4556  26.4556  26.7205  26.7205  27.0033  27.0033  27.4537  27.4537
    27.6937  27.6937  27.9547  27.9547  28.2382  28.2382  28.6328  28.6328
    29.0677  29.0677  29.1266  29.1266  29.2072  29.2072  29.3151  29.3151
    29.9550  29.9550  30.7196  30.7196  31.0124  31.0124  31.1487  31.1487
    31.5859  31.5859  32.5158  32.5158  33.5162  33.5162  34.1281  34.1281
    34.2640  34.2640  34.3848  34.3848  35.1931  35.1931  35.9230  35.9230
    36.4633  36.4633  36.5990  36.5990  37.4409  37.4409  37.6555  37.6555
    37.7513  37.7513  38.2981  38.2981  38.7944  38.7944  38.9088  38.9088
    39.1731  39.1731  39.2269  39.2269  39.2785  39.2785  39.6036  39.6036
    39.7342  39.7342  40.1669  40.1669  40.4675  40.4675  40.8943  40.8943
    41.3219  41.3219  41.4846  41.4846  41.9237  41.9237  42.2999  42.2999
    42.7691  42.7691  43.2980  43.2980  43.7859  43.7859  44.0448  44.0448
    44.6513  44.6513  44.7594  44.7594  45.3635  45.3635  45.6389  45.6389
    45.8682  45.8682  46.0613  46.0613  46.3273  46.3273  47.0685  47.0685
    47.1553  47.1553  47.8104  47.8104  48.2878  48.2878  48.5182  48.5182
    48.7266  48.7266  48.8986  48.8986  49.5106  49.5106  49.7693  49.7693
    49.8717  49.8717  49.9364  49.9364  50.1138  50.1138  50.3009  50.3009
    50.9467  50.9467  51.4689  51.4689  51.5999  51.5999  51.7121  51.7121
    51.9061  51.9061  52.3214  52.3214  52.3672  52.3672  52.5081  52.5081
    52.7603  52.7603  53.2006  53.2006  53.9272  53.9272  54.1307  54.1307
    54.4278  54.4278  54.7049  54.7049  54.7983  54.7983  55.1215  55.1215
    55.6221  55.6221  55.8075  55.8075  56.2745  56.2745  56.8090  56.8090
    57.0314  57.0314  57.2601  57.2601  57.3096  57.3096  57.7574  57.7574
    58.0112  58.0112  58.3637  58.3637  58.6162  58.6162  58.7632  58.7632
    59.0460  59.0460  59.4622  59.4622  59.7993  59.7993  59.8449  59.8450
    60.3365  60.3365  60.8592  60.8592  61.2819  61.2819  61.6456  61.6456
    62.1382  62.1382  62.7655  62.7655  62.9810  62.9810  63.2609  63.2609
    63.7570  63.7570  63.8015  63.8015  63.9436  63.9436  64.6360  64.6360
    64.8909  64.8909  65.0413  65.0413  65.3711  65.3711  65.5912  65.5912
    65.7377  65.7377  65.7828  65.7828  66.0003  66.0003  66.3880  66.3880
    66.5541  66.5541  67.3361  67.3361  67.3899  67.3899  67.6533  67.6533
    67.7395  67.7395  67.9891  67.9891  68.1320  68.1320  68.4549  68.4549
    68.7317  68.7317  68.7782  68.7782  69.0653  69.0653  69.9152  69.9152
    70.1369  70.1369  70.3454  70.3454  70.7707  70.7707  71.0079  71.0079
    71.5021  71.5021  71.7771  71.7771  72.0410  72.0410  72.1649  72.1649
    72.2832  72.2832  72.5833  72.5833  72.6524  72.6524  73.0200  73.0200
    73.3989  73.3989  73.5006  73.5006  73.6088  73.6088  73.8376  73.8376
    74.2414  74.2414  74.6826  74.6826  74.9161  74.9161  75.0373  75.0373
    75.4200  75.4200  75.6290  75.6290  76.1063  76.1063  76.2654  76.2654
    76.3826  76.3826  76.4613  76.4613  76.5728  76.5728  76.6254  76.6254
    76.6870  76.6870  77.1420  77.1420  77.1796  77.1796  77.6505  77.6505
    77.8465  77.8465  78.0021  78.0021  78.2871  78.2871  78.3023  78.3023
    78.5103  78.5103  78.7383  78.7383  79.0549  79.0549  79.6117  79.6117
    79.6939  79.6939  79.8374  79.8374  80.0741  80.0741  80.1038  80.1038
    80.5491  80.5491  80.8407  80.8407  80.9699  80.9699  81.2587  81.2587
    81.8378  81.8378  82.4930  82.4930  82.7693  82.7693  83.1089  83.1089
    83.2388  83.2388  83.4393  83.4393  83.4940  83.4940  83.8036  83.8036
    84.3033  84.3033  84.4113  84.4113

          k = 0.0000-0.8617 0.2056 (  6645 PWs)   bands (ev):

   -37.0288 -37.0288 -37.0184 -37.0184 -37.0119 -37.0119 -37.0013 -37.0013
   -36.7874 -36.7874 -36.7252 -36.7252 -36.1378 -36.1378 -36.1311 -36.1311
   -36.1256 -36.1256 -36.1175 -36.1175 -36.1140 -36.1140 -36.1039 -36.1039
   -35.8987 -35.8987 -35.8703 -35.8703 -35.8174 -35.8174 -13.2002 -13.2002
   -13.1996 -13.1996 -13.1760 -13.1760 -13.1739 -13.1739 -10.2486 -10.2486
   -10.2437 -10.2437 -10.2148 -10.2148 -10.2125 -10.2125 -10.1906 -10.1906
   -10.1869 -10.1869  -2.9002  -2.9002  -2.3086  -2.3086  -1.5023  -1.5023
     1.3136   1.3136   1.7700   1.7700   5.8899   5.8899   7.1188   7.1188
     7.8464   7.8464   8.1435   8.1435   8.7351   8.7351   8.9549   8.9549
     9.7367   9.7367   9.8779   9.8779  10.1063  10.1063  12.9639  12.9639
    13.7392  13.7393  14.1491  14.1491  14.8283  14.8283  15.1823  15.1823
    15.5794  15.5794  15.8838  15.8838  17.9330  17.9330  18.9968  18.9968
    19.6170  19.6170  20.1548  20.1548  20.3248  20.3248  20.9141  20.9141
    21.4885  21.4885  21.9507  21.9507  22.5442  22.5442  23.2294  23.2294
    23.5024  23.5024  24.1933  24.1933  24.9329  24.9329  25.3256  25.3256
    26.1459  26.1459  26.5562  26.5562  27.0188  27.0188  27.2754  27.2754
    27.7056  27.7056  27.9581  27.9581  28.1601  28.1601  28.4873  28.4873
    29.2192  29.2192  29.3093  29.3093  29.3791  29.3791  29.5471  29.5471
    30.0624  30.0624  30.7216  30.7216  31.3069  31.3069  31.4081  31.4081
    31.5436  31.5437  32.3059  32.3059  33.6155  33.6155  33.9627  33.9627
    34.4817  34.4817  34.6567  34.6567  35.4050  35.4050  35.6332  35.6332
    36.3932  36.3932  36.5439  36.5439  37.5340  37.5340  37.7548  37.7548
    37.9834  37.9834  38.5774  38.5774  38.9210  38.9210  39.0193  39.0193
    39.1279  39.1279  39.2842  39.2842  39.4656  39.4656  39.6405  39.6405
    39.9701  39.9701  40.1711  40.1711  40.6604  40.6604  41.0016  41.0016
    41.3976  41.3976  41.5199  41.5199  42.1430  42.1430  42.3361  42.3361
    42.8217  42.8217  43.4034  43.4034  44.0699  44.0699  44.2318  44.2318
    44.7462  44.7462  44.9545  44.9545  45.6018  45.6018  45.6960  45.6960
    45.8847  45.8847  46.0755  46.0755  46.5069  46.5069  47.0583  47.0583
    47.1790  47.1790  47.7671  47.7671  48.3207  48.3207  48.6074  48.6074
    48.7310  48.7310  48.9032  48.9032  49.5466  49.5466  49.7643  49.7643
    49.9390  49.9391  49.9997  49.9997  50.1309  50.1310  50.4109  50.4109
    50.8630  50.8630  51.4163  51.4163  51.4424  51.4424  51.7700  51.7700
    51.9644  51.9644  52.1061  52.1061  52.2519  52.2519  52.5087  52.5087
    52.7541  52.7541  52.9633  52.9633  53.7488  53.7488  53.9989  53.9989
    54.4526  54.4526  54.5064  54.5064  54.6873  54.6873  54.8534  54.8534
    55.3784  55.3784  55.6003  55.6003  56.3032  56.3032  56.6492  56.6492
    57.0719  57.0719  57.3919  57.3919  57.4576  57.4576  57.6691  57.6691
    58.1593  58.1593  58.3821  58.3821  58.5462  58.5462  58.6294  58.6294
    59.1193  59.1193  59.3237  59.3237  59.5266  59.5266  59.6033  59.6033
    60.1474  60.1474  60.6086  60.6086  61.2785  61.2785  61.3032  61.3032
    61.9766  61.9766  62.6186  62.6186  62.7240  62.7240  63.3075  63.3075
    63.6630  63.6630  63.7087  63.7087  63.8760  63.8760  64.5259  64.5259
    64.5553  64.5553  64.6728  64.6728  65.4094  65.4094  65.4968  65.4968
    65.6300  65.6300  65.7893  65.7893  65.9853  65.9853  66.2677  66.2677
    66.5393  66.5393  66.8172  66.8172  67.1887  67.1887  67.4680  67.4680
    67.5828  67.5828  67.6349  67.6349  67.6589  67.6589  68.0192  68.0192
    68.4674  68.4674  68.7076  68.7076  68.9890  68.9890  69.6381  69.6381
    69.8759  69.8759  70.2394  70.2394  70.7758  70.7758  71.1032  71.1032
    71.7523  71.7523  72.1386  72.1386  72.2133  72.2133  72.3035  72.3035
    72.4407  72.4407  72.7576  72.7576  72.9176  72.9176  73.0784  73.0784
    73.3433  73.3433  73.6317  73.6317  73.7767  73.7767  73.8352  73.8352
    74.2495  74.2495  74.4930  74.4930  74.8727  74.8727  75.0174  75.0174
    75.4776  75.4776  75.7815  75.7815  76.0566  76.0566  76.2729  76.2729
    76.4032  76.4032  76.5170  76.5170  76.6174  76.6174  76.6259  76.6259
    77.0166  77.0166  77.1382  77.1382  77.2284  77.2284  77.7077  77.7077
    77.9314  77.9314  77.9927  77.9927  78.1445  78.1445  78.4191  78.4191
    78.6037  78.6037  78.8458  78.8458  78.9664  78.9664  79.8555  79.8555
    79.8854  79.8854  80.1397  80.1397  80.4509  80.4509  80.5400  80.5400
    80.5854  80.5854  80.9911  80.9911  81.1402  81.1402  81.5328  81.5328
    81.8517  81.8517  82.5642  82.5642  82.8818  82.8818  82.9024  82.9024
    83.3179  83.3179  83.6728  83.6728  83.9294  83.9294  83.9820  83.9820
    84.3396  84.3396  84.3766  84.3766

          k = 0.0000-0.8138 0.1942 (  6643 PWs)   bands (ev):

   -37.0273 -37.0273 -37.0182 -37.0182 -37.0112 -37.0112 -37.0024 -37.0024
   -36.7867 -36.7867 -36.7254 -36.7254 -36.1363 -36.1363 -36.1302 -36.1302
   -36.1254 -36.1254 -36.1187 -36.1187 -36.1120 -36.1120 -36.1053 -36.1053
   -35.8978 -35.8978 -35.8701 -35.8701 -35.8177 -35.8177 -13.2006 -13.2006
   -13.2000 -13.2000 -13.1760 -13.1760 -13.1738 -13.1738 -10.2482 -10.2481
   -10.2433 -10.2432 -10.2145 -10.2145 -10.2125 -10.2125 -10.1917 -10.1917
   -10.1880 -10.1880  -2.9973  -2.9973  -2.3806  -2.3806  -1.5446  -1.5446
     1.3721   1.3721   1.8620   1.8620   6.0485   6.0485   7.2229   7.2229
     7.8309   7.8309   8.2046   8.2046   8.8401   8.8401   9.0496   9.0496
     9.7774   9.7774   9.9514   9.9514  10.1667  10.1667  12.9682  12.9682
    13.6397  13.6398  14.1789  14.1789  14.8004  14.8004  15.2093  15.2093
    15.6064  15.6064  15.8849  15.8849  17.9361  17.9361  18.8198  18.8198
    19.7088  19.7088  20.0706  20.0706  20.1449  20.1449  20.7081  20.7081
    21.4097  21.4097  21.7624  21.7624  22.2756  22.2756  23.0186  23.0186
    23.2404  23.2404  24.1107  24.1107  24.8465  24.8465  25.1810  25.1810
    25.8088  25.8088  26.2487  26.2487  26.9924  26.9924  27.2284  27.2284
    27.6557  27.6557  27.8816  27.8816  28.1583  28.1583  28.3715  28.3715
    29.2580  29.2580  29.3519  29.3519  29.5415  29.5415  29.9046  29.9046
    30.2930  30.2930  30.8890  30.8890  31.3057  31.3057  31.6392  31.6392
    31.8003  31.8003  32.3037  32.3037  33.6468  33.6468  33.6980  33.6980
    34.6403  34.6403  34.9177  34.9177  35.4271  35.4271  35.6031  35.6031
    36.3723  36.3723  36.4902  36.4902  37.5683  37.5683  37.8092  37.8092
    38.2699  38.2699  38.6486  38.6486  38.7969  38.7969  39.0909  39.0909
    39.2895  39.2895  39.3268  39.3268  39.5496  39.5496  39.9016  39.9016
    40.0906  40.0907  40.4230  40.4230  40.7232  40.7233  41.3018  41.3018
    41.4323  41.4323  41.6431  41.6431  42.3238  42.3238  42.4762  42.4762
    42.9088  42.9088  43.5067  43.5067  44.2600  44.2600  44.5061  44.5061
    44.8269  44.8269  45.0935  45.0935  45.5522  45.5522  45.8175  45.8175
    46.0415  46.0415  46.1320  46.1320  46.7328  46.7328  47.0395  47.0395
    47.2184  47.2184  47.6944  47.6944  48.3191  48.3191  48.6733  48.6733
    48.7151  48.7151  48.9052  48.9052  49.3816  49.3816  49.8690  49.8690
    49.9431  49.9431  50.0773  50.0773  50.3068  50.3068  50.5365  50.5365
    50.8325  50.8325  51.1036  51.1036  51.2313  51.2313  51.7117  51.7117
    51.8120  51.8120  51.9527  51.9527  52.3333  52.3333  52.4988  52.4988
    52.7182  52.7182  53.0740  53.0740  53.5002  53.5002  53.5903  53.5903
    54.3410  54.3410  54.4283  54.4283  54.6810  54.6810  54.8826  54.8826
    55.1483  55.1483  55.4842  55.4842  56.3107  56.3107  56.4559  56.4559
    57.0783  57.0783  57.3129  57.3129  57.6972  57.6972  57.7321  57.7321
    58.1757  58.1757  58.2633  58.2633  58.4698  58.4698  58.6079  58.6079
    59.1597  59.1597  59.2623  59.2623  59.3674  59.3674  59.5351  59.5351
    60.0118  60.0118  60.3615  60.3615  61.0041  61.0041  61.2420  61.2420
    61.7792  61.7792  62.2688  62.2688  62.5611  62.5611  63.3156  63.3156
    63.4575  63.4575  63.6280  63.6280  63.6760  63.6760  64.2607  64.2607
    64.3749  64.3749  64.5249  64.5249  65.2306  65.2306  65.2690  65.2690
    65.5563  65.5563  65.6460  65.6460  65.9759  65.9759  66.2713  66.2713
    66.5031  66.5031  66.5895  66.5895  66.7624  66.7624  67.0757  67.0757
    67.1905  67.1905  67.2948  67.2948  67.7707  67.7707  67.8392  67.8392
    68.1130  68.1130  68.6747  68.6747  68.9719  68.9719  69.4646  69.4646
    69.5745  69.5745  70.1457  70.1457  70.6091  70.6091  71.1003  71.1003
    71.9168  71.9168  71.9952  71.9952  72.2406  72.2406  72.4067  72.4067
    72.6238  72.6238  72.8846  72.8846  73.0557  73.0557  73.1637  73.1637
    73.3088  73.3088  73.7916  73.7916  73.9400  73.9400  74.1597  74.1597
    74.2578  74.2578  74.2993  74.2994  74.5911  74.5911  75.3133  75.3133
    75.5375  75.5375  75.8839  75.8839  76.0688  76.0688  76.2944  76.2944
    76.5483  76.5484  76.5834  76.5834  76.6227  76.6227  76.6959  76.6959
    77.0819  77.0819  77.2491  77.2491  77.3792  77.3792  77.5435  77.5435
    77.6137  77.6137  78.0486  78.0486  78.1494  78.1494  78.6873  78.6873
    78.8110  78.8110  78.9141  78.9141  79.2388  79.2388  79.9117  79.9117
    80.1192  80.1192  80.5196  80.5196  80.6691  80.6691  80.8268  80.8268
    80.9800  80.9800  81.2895  81.2895  81.5574  81.5574  81.6823  81.6823
    81.9745  81.9745  82.6130  82.6130  82.7839  82.7839  82.9116  82.9116
    83.3415  83.3415  83.5962  83.5962  83.9761  83.9761  84.1909  84.1909
    84.4459  84.4459  84.5758  84.5758

          k = 0.0000-0.7659 0.1828 (  6634 PWs)   bands (ev):

   -37.0250 -37.0250 -37.0177 -37.0176 -37.0088 -37.0088 -37.0008 -37.0008
   -36.7852 -36.7852 -36.7234 -36.7234 -36.1339 -36.1339 -36.1279 -36.1279
   -36.1249 -36.1249 -36.1172 -36.1172 -36.1100 -36.1100 -36.1039 -36.1039
   -35.8966 -35.8966 -35.8682 -35.8682 -35.8155 -35.8155 -13.2010 -13.2010
   -13.2004 -13.2004 -13.1760 -13.1759 -13.1737 -13.1737 -10.2477 -10.2477
   -10.2429 -10.2429 -10.2142 -10.2141 -10.2123 -10.2123 -10.1927 -10.1927
   -10.1891 -10.1891  -3.0906  -3.0906  -2.4498  -2.4498  -1.5903  -1.5903
     1.4207   1.4207   1.9572   1.9572   6.2250   6.2250   7.3318   7.3318
     7.7978   7.7978   8.2779   8.2779   8.9279   8.9279   9.1720   9.1720
     9.8176   9.8176  10.0400  10.0400  10.2382  10.2382  12.9623  12.9623
    13.5219  13.5219  14.1956  14.1956  14.7254  14.7254  15.2429  15.2429
    15.6185  15.6185  15.9442  15.9442  17.9233  17.9233  18.6640  18.6640
    19.7751  19.7751  19.8876  19.8876  20.1587  20.1587  20.5094  20.5094
    21.3391  21.3391  21.5928  21.5928  22.0089  22.0089  22.7815  22.7815
    22.9783  22.9783  24.0453  24.0453  24.7713  24.7713  24.9767  24.9767
    25.4837  25.4837  25.9465  25.9465  26.6836  26.6836  27.4009  27.4009
    27.5316  27.5316  27.7537  27.7537  28.1277  28.1277  28.4222  28.4222
    29.2041  29.2041  29.3807  29.3807  29.6659  29.6659  30.2980  30.2980
    30.5774  30.5774  31.1696  31.1696  31.1797  31.1797  31.7944  31.7944
    32.2128  32.2128  32.5375  32.5375  33.3689  33.3689  33.7496  33.7496
    34.4212  34.4212  35.2271  35.2271  35.3987  35.3987  35.6962  35.6962
    36.4113  36.4113  36.5234  36.5234  37.6470  37.6470  37.8198  37.8198
    38.3305  38.3305  38.5402  38.5402  38.8542  38.8542  39.0986  39.0986
    39.3400  39.3401  39.5172  39.5172  39.7041  39.7041  40.1309  40.1309
    40.2487  40.2487  40.7431  40.7431  40.7887  40.7887  41.4106  41.4106
    41.6789  41.6789  41.8610  41.8610  42.3506  42.3506  42.8166  42.8166
    43.0904  43.0904  43.5952  43.5952  44.3944  44.3944  44.7695  44.7695
    44.8957  44.8957  45.1077  45.1077  45.4879  45.4879  45.9018  45.9018
    46.1095  46.1095  46.3908  46.3908  46.9215  46.9215  47.0627  47.0627
    47.2703  47.2703  47.6059  47.6059  48.2954  48.2954  48.6532  48.6532
    48.7830  48.7830  48.8824  48.8824  49.1575  49.1575  49.8297  49.8297
    49.9831  49.9831  50.1731  50.1731  50.5305  50.5305  50.6108  50.6108
    50.7897  50.7897  50.8948  50.8948  51.0130  51.0130  51.4704  51.4704
    51.6548  51.6548  51.8137  51.8137  52.3085  52.3085  52.4828  52.4828
    52.7987  52.7987  53.1085  53.1085  53.2703  53.2703  53.3865  53.3865
    54.1596  54.1596  54.4388  54.4388  54.5943  54.5943  54.9326  54.9326
    55.1951  55.1951  55.4042  55.4042  56.2723  56.2723  56.3816  56.3816
    57.0679  57.0679  57.1294  57.1294  57.6486  57.6486  57.7838  57.7838
    58.0310  58.0310  58.1642  58.1642  58.4180  58.4180  58.8281  58.8281
    58.9913  58.9913  59.1406  59.1406  59.5484  59.5484  59.6205  59.6205
    59.9308  59.9308  60.2320  60.2320  60.7578  60.7578  61.1021  61.1021
[...]
    22.6025  22.6025  22.9247  22.9247  23.5807  23.5807  23.8929  23.8929
    24.2912  24.2912  24.6948  24.6948  25.0031  25.0031  25.4471  25.4471
    26.0878  26.0878  26.1937  26.1937  26.9080  26.9080  27.0492  27.0492
    27.7624  27.7624  27.9581  27.9582  28.5307  28.5307  29.0614  29.0614
    29.2289  29.2289  29.9739  29.9739  30.1307  30.1308  30.3228  30.3228
    30.7531  30.7531  30.9954  30.9954  31.1293  31.1293  31.6629  31.6629
    31.8493  31.8493  32.3915  32.3915  32.5142  32.5142  33.0223  33.0223
    33.6145  33.6145  33.8939  33.8939  34.1073  34.1073  34.4325  34.4325
    34.5460  34.5460  34.9557  34.9557  35.7946  35.7946  36.0173  36.0173
    36.4956  36.4956  37.0815  37.0815  37.6608  37.6608  38.4981  38.4981
    38.5810  38.5810  39.0117  39.0117  39.3166  39.3166  39.6775  39.6775
    40.0056  40.0056  40.3227  40.3227  40.5353  40.5353  40.8831  40.8831
    41.3555  41.3555  41.8559  41.8559  41.9763  41.9763  42.6050  42.6050
    42.6318  42.6318  43.7946  43.7946  43.8886  43.8886  44.1867  44.1867
    44.2539  44.2539  44.7950  44.7950  44.8916  44.8916  44.9734  44.9734
    45.1669  45.1669  45.4783  45.4783  45.5775  45.5775  46.1238  46.1238
    46.3967  46.3967  46.4839  46.4839  46.8077  46.8077  46.9886  46.9886
    47.5230  47.5230  47.6399  47.6399  48.3178  48.3178  49.0279  49.0279
    49.2648  49.2648  49.8724  49.8724  50.1908  50.1908  50.2543  50.2543
    50.5686  50.5686  50.7780  50.7780  50.9343  50.9343  52.1325  52.1325
    52.3720  52.3720  52.5372  52.5372  52.6925  52.6925  52.8053  52.8053
    53.2680  53.2680  53.4615  53.4615  53.4818  53.4818  53.9362  53.9362
    54.7832  54.7832  55.0498  55.0498  56.2586  56.2586  56.4058  56.4058
    56.6725  56.6725  57.7427  57.7427  57.7976  57.7976  57.8741  57.8741
    58.7310  58.7310  59.0818  59.0818  59.4903  59.4903  59.5372  59.5372
    59.7146  59.7146  59.8502  59.8502  59.9516  59.9516  60.1559  60.1559
    60.3704  60.3704  60.5670  60.5670  61.0347  61.0347  61.3767  61.3767
    61.8625  61.8625  62.1489  62.1489  62.1706  62.1706  62.7125  62.7125
    62.8951  62.8951  63.0222  63.0222  63.1598  63.1598  63.6789  63.6789
    64.0465  64.0465  64.1219  64.1219  64.4211  64.4211  64.4742  64.4742
    65.0709  65.0709  65.2645  65.2645  65.4783  65.4783  65.6577  65.6577
    65.9133  65.9133  66.2508  66.2508  66.4427  66.4427  66.5867  66.5867
    66.6154  66.6154  67.5503  67.5503  67.6298  67.6298  67.8999  67.8999
    68.2667  68.2667  68.6413  68.6413  68.8804  68.8804  69.1340  69.1340
    69.1823  69.1823  69.3495  69.3495  69.4727  69.4727  69.6146  69.6146
    69.8473  69.8473  70.1006  70.1006  70.3197  70.3197  70.5519  70.5519
    70.9505  70.9505  71.0669  71.0669  71.3389  71.3389  71.7135  71.7135
    71.9175  71.9175  71.9871  71.9871  72.0877  72.0878  72.7647  72.7647
    73.1210  73.1210  73.2291  73.2291  73.4339  73.4339  73.4871  73.4871
    73.6389  73.6389  74.2039  74.2039  74.5339  74.5339  74.9426  74.9426
    75.3454  75.3454  75.5457  75.5457  75.8024  75.8024  76.1329  76.1329
    76.4135  76.4135  76.5999  76.5999  76.6348  76.6348  76.6380  76.6380
    76.6930  76.6930  77.1444  77.1444  77.2035  77.2035  77.3678  77.3678
    77.4747  77.4747  77.8646  77.8646  78.2802  78.2802  78.3933  78.3933
    78.6853  78.6853  78.8291  78.8291  79.0976  79.0976  79.3707  79.3707
    79.4600  79.4600  80.0576  80.0576  80.2323  80.2323  80.4086  80.4086
    80.6882  80.6882  80.7040  80.7040  81.0062  81.0062  81.2799  81.2799
    81.4818  81.4818  81.6384  81.6384  82.2774  82.2774  82.3804  82.3804
    82.6165  82.6165  82.6476  82.6476  82.9270  82.9270  83.0196  83.0196
    83.7031  83.7031  84.0075  84.0075

          k =-1.1608-0.6702 0.1599 (  6637 PWs)   bands (ev):

   -37.0253 -37.0253 -37.0158 -37.0158 -37.0123 -37.0123 -37.0021 -37.0021
   -36.7830 -36.7830 -36.7274 -36.7274 -36.1341 -36.1341 -36.1275 -36.1275
   -36.1252 -36.1252 -36.1166 -36.1166 -36.1132 -36.1132 -36.1063 -36.1063
   -35.8948 -35.8948 -35.8669 -35.8669 -35.8218 -35.8218 -13.1976 -13.1976
   -13.1972 -13.1972 -13.1754 -13.1754 -13.1749 -13.1748 -10.2538 -10.2538
   -10.2496 -10.2496 -10.2151 -10.2151 -10.2110 -10.2110 -10.1830 -10.1830
   -10.1783 -10.1783  -1.9000  -1.9000  -1.6767  -1.6767  -1.4383  -1.4383
     0.5979   0.5979   1.0913   1.0913   5.1317   5.1317   7.0586   7.0586
     7.1801   7.1801   7.8072   7.8072   8.0396   8.0396   8.2614   8.2614
     8.6843   8.6843  10.0872  10.0872  11.0071  11.0071  12.0033  12.0033
    13.4270  13.4270  14.1221  14.1221  14.6223  14.6223  15.2411  15.2412
    15.3495  15.3495  16.2090  16.2090  17.7127  17.7127  20.6575  20.6575
    21.4660  21.4660  21.7452  21.7452  21.8991  21.8991  21.9636  21.9636
    22.7560  22.7560  23.0865  23.0865  23.7684  23.7684  23.9399  23.9399
    24.1748  24.1748  24.8581  24.8581  24.9947  24.9947  25.4124  25.4124
    25.8975  25.8975  26.0598  26.0598  26.5907  26.5907  26.9962  26.9962
    27.8326  27.8326  27.9288  27.9289  28.6543  28.6544  28.8872  28.8872
    29.4560  29.4560  29.9713  29.9713  30.3885  30.3885  30.4711  30.4711
    30.8522  30.8522  31.0257  31.0257  31.2584  31.2584  31.7500  31.7500
    31.9246  31.9246  32.2571  32.2572  32.3440  32.3440  32.9621  32.9621
    33.4618  33.4618  33.9299  33.9299  33.9765  33.9765  34.4298  34.4298
    34.5452  34.5452  34.7666  34.7666  35.5962  35.5962  35.8840  35.8840
    36.5103  36.5103  36.9804  36.9804  37.7504  37.7504  38.5990  38.5990
    38.6756  38.6756  39.0643  39.0643  39.3269  39.3269  39.6994  39.6994
    39.9819  39.9819  40.2008  40.2008  40.4498  40.4498  40.8000  40.8000
    41.4036  41.4036  41.6803  41.6803  41.9012  41.9012  42.3626  42.3626
    42.6698  42.6698  43.8424  43.8424  43.9372  43.9372  44.2039  44.2039
    44.3077  44.3077  44.7765  44.7765  44.9423  44.9423  44.9933  44.9933
    45.2067  45.2067  45.4813  45.4813  45.6386  45.6386  46.1011  46.1011
    46.2038  46.2038  46.3269  46.3269  46.7599  46.7599  46.8442  46.8442
    47.4469  47.4469  47.6715  47.6715  48.2427  48.2427  49.0937  49.0937
    49.3875  49.3875  49.8432  49.8432  50.1250  50.1250  50.4825  50.4825
    50.6836  50.6836  50.9733  50.9733  51.1830  51.1830  52.0318  52.0318
    52.2939  52.2939  52.4125  52.4125  52.5581  52.5581  52.6522  52.6522
    53.0720  53.0720  53.2382  53.2382  53.5075  53.5075  53.6846  53.6846
    54.8543  54.8543  54.9939  54.9939  56.2489  56.2489  56.3694  56.3694
    56.6440  56.6440  57.8683  57.8683  58.1164  58.1164  58.1661  58.1661
    58.8827  58.8827  59.0869  59.0869  59.3748  59.3748  59.7355  59.7355
    59.9055  59.9055  59.9920  59.9920  60.3271  60.3271  60.4666  60.4666
    60.8297  60.8297  61.1171  61.1171  61.1861  61.1861  61.5966  61.5966
    61.7086  61.7086  62.1764  62.1764  62.2993  62.2993  62.6807  62.6807
    62.7441  62.7441  62.9934  62.9935  63.0940  63.0940  63.4060  63.4060
    63.7423  63.7423  64.1267  64.1268  64.1909  64.1909  64.2738  64.2738
    64.8933  64.8933  65.0503  65.0503  65.3170  65.3170  65.5113  65.5113
    66.0329  66.0329  66.3267  66.3267  66.4799  66.4799  66.7264  66.7264
    66.8142  66.8142  67.7230  67.7230  67.8135  67.8135  67.8898  67.8898
    68.1116  68.1116  68.3782  68.3782  68.9486  68.9486  69.2294  69.2294
    69.3012  69.3012  69.3817  69.3817  69.4977  69.4977  69.5979  69.5979
    70.1729  70.1729  70.4055  70.4055  70.4758  70.4758  70.6451  70.6451
    71.2390  71.2390  71.3232  71.3232  71.3892  71.3892  71.4877  71.4877
    71.7346  71.7346  71.8230  71.8230  71.9351  71.9351  72.6783  72.6783
    72.7339  72.7339  72.8502  72.8502  73.1396  73.1396  73.4162  73.4162
    73.4782  73.4783  74.2750  74.2750  74.6589  74.6589  74.7728  74.7728
    74.8235  74.8235  75.3558  75.3558  75.7609  75.7609  76.1661  76.1661
    76.5462  76.5462  76.6329  76.6329  76.6548  76.6548  76.6796  76.6796
    77.0729  77.0729  77.3234  77.3234  77.3602  77.3602  77.5465  77.5465
    77.5845  77.5845  78.0820  78.0820  78.2874  78.2874  78.6005  78.6005
    78.8026  78.8026  78.9031  78.9031  79.0816  79.0816  79.3988  79.3988
    79.5179  79.5179  79.8385  79.8385  79.9336  79.9336  80.1745  80.1745
    80.3736  80.3736  80.8402  80.8402  81.1024  81.1024  81.3653  81.3653
    81.6240  81.6240  81.7678  81.7678  81.9818  81.9818  82.2622  82.2622
    82.3506  82.3506  82.7209  82.7209  82.8838  82.8838  83.0994  83.0994
    83.6273  83.6273  83.9028  83.9028

          k =-1.2023-0.6941 0.1656 (  6653 PWs)   bands (ev):

   -37.0261 -37.0261 -37.0212 -37.0212 -37.0147 -37.0147 -37.0071 -37.0071
   -36.7859 -36.7859 -36.7313 -36.7313 -36.1354 -36.1353 -36.1310 -36.1310
   -36.1285 -36.1284 -36.1203 -36.1203 -36.1171 -36.1171 -36.1106 -36.1106
   -35.8978 -35.8978 -35.8697 -35.8697 -35.8259 -35.8259 -13.1976 -13.1976
   -13.1972 -13.1972 -13.1754 -13.1754 -13.1750 -13.1749 -10.2540 -10.2540
   -10.2498 -10.2498 -10.2151 -10.2151 -10.2109 -10.2109 -10.1828 -10.1828
   -10.1781 -10.1781  -1.8421  -1.8421  -1.6405  -1.6405  -1.4860  -1.4860
     0.5967   0.5967   1.0508   1.0508   5.1076   5.1076   7.0973   7.0973
     7.1637   7.1637   7.7898   7.7898   8.0338   8.0338   8.2410   8.2410
     8.6421   8.6421  10.0862  10.0862  11.0103  11.0103  11.9945  11.9945
    13.4224  13.4224  14.1350  14.1350  14.6365  14.6365  15.2472  15.2472
    15.3072  15.3072  16.1999  16.1999  17.7070  17.7070  20.7787  20.7787
    21.4293  21.4293  21.7767  21.7767  21.9093  21.9093  22.0029  22.0029
    22.8735  22.8735  23.2493  23.2493  23.8012  23.8012  23.9727  23.9727
    24.1524  24.1524  24.7469  24.7469  25.2043  25.2043  25.4612  25.4612
    25.6821  25.6821  25.9971  25.9971  26.3191  26.3191  26.9688  26.9688
    27.7976  27.7976  28.0501  28.0501  28.6354  28.6354  28.8565  28.8565
    29.6256  29.6256  29.8633  29.8633  30.5792  30.5792  30.6334  30.6334
    30.8963  30.8963  31.0420  31.0420  31.3363  31.3363  31.7973  31.7973
    31.9221  31.9221  32.1560  32.1560  32.3634  32.3635  32.8996  32.8996
    33.3592  33.3592  33.7673  33.7673  33.9577  33.9577  34.3639  34.3639
    34.5376  34.5376  34.7870  34.7870  35.6080  35.6080  35.7809  35.7809
    36.2217  36.2217  37.1264  37.1264  37.7792  37.7792  38.6763  38.6763
    38.7550  38.7550  38.9535  38.9535  39.4634  39.4634  39.7063  39.7063
    39.9768  39.9768  40.1222  40.1222  40.3949  40.3949  40.7495  40.7495
    41.4693  41.4693  41.5640  41.5640  41.8556  41.8556  42.1421  42.1421
    42.6943  42.6943  43.8738  43.8738  43.9608  43.9608  44.2038  44.2038
    44.4099  44.4099  44.6798  44.6798  44.9383  44.9383  45.0086  45.0086
    45.2494  45.2494  45.5238  45.5238  45.8156  45.8156  45.9685  45.9685
    46.1191  46.1191  46.2811  46.2811  46.5164  46.5164  46.8509  46.8509
    47.4083  47.4083  47.7018  47.7018  48.1875  48.1875  49.1445  49.1445
    49.4447  49.4447  49.8180  49.8180  50.0360  50.0360  50.7337  50.7337
    50.7640  50.7640  51.1506  51.1506  51.4696  51.4696  51.9003  51.9003
    52.2370  52.2370  52.2648  52.2648  52.4370  52.4370  52.5315  52.5315
    52.8459  52.8459  53.0730  53.0730  53.5443  53.5443  53.6019  53.6019
    54.8903  54.8903  54.9625  54.9625  56.2433  56.2433  56.3381  56.3381
    56.6239  56.6239  57.9333  57.9333  58.3419  58.3419  58.4762  58.4762
    58.9071  58.9071  59.1375  59.1375  59.2028  59.2028  59.6510  59.6510
    60.0266  60.0266  60.0741  60.0741  60.7583  60.7584  60.9161  60.9161
    61.1396  61.1396  61.4392  61.4393  61.5255  61.5255  61.6092  61.6092
    61.7696  61.7696  62.0286  62.0286  62.3135  62.3135  62.5178  62.5178
    62.6657  62.6657  62.9283  62.9283  63.0122  63.0122  63.2800  63.2800
    63.3568  63.3568  63.9391  63.9391  64.2399  64.2399  64.2744  64.2744
    64.5984  64.5984  64.7948  64.7948  65.1749  65.1749  65.4979  65.4979
    66.0375  66.0375  66.3633  66.3633  66.7740  66.7740  66.9902  66.9902
    67.0427  67.0427  67.4824  67.4824  67.7746  67.7746  67.8709  67.8709
    68.1666  68.1666  68.4217  68.4217  68.7930  68.7930  69.0442  69.0442
    69.2163  69.2163  69.4450  69.4450  69.6515  69.6515  69.8675  69.8675
    70.4276  70.4276  70.6276  70.6276  70.7356  70.7356  70.8113  70.8113
    70.9321  70.9321  71.2133  71.2133  71.4304  71.4304  71.6425  71.6425
    71.7128  71.7128  71.9275  71.9275  71.9994  71.9994  72.3062  72.3062
    72.4403  72.4403  72.8262  72.8262  72.9269  72.9269  73.2216  73.2216
    73.3801  73.3801  74.1277  74.1277  74.5153  74.5153  74.5694  74.5694
    75.0591  75.0591  75.2660  75.2660  75.3927  75.3927  76.1825  76.1825
    76.6231  76.6231  76.6340  76.6340  76.7446  76.7446  76.8537  76.8537
    77.1375  77.1375  77.3708  77.3708  77.5212  77.5212  77.7632  77.7632
    77.8203  77.8203  78.1677  78.1677  78.3795  78.3795  78.7174  78.7174
    78.7842  78.7842  79.0887  79.0887  79.1774  79.1774  79.3574  79.3574
    79.5686  79.5686  79.7178  79.7178  79.7818  79.7818  80.0293  80.0293
    80.1288  80.1288  80.5002  80.5002  81.0160  81.0160  81.3458  81.3458
    81.7279  81.7279  81.8930  81.8930  82.0638  82.0638  82.2550  82.2550
    82.3872  82.3872  82.6560  82.6560  82.8512  82.8512  83.1915  83.1915
    83.6817  83.6817  83.6881  83.6881

          k =-1.2437-0.7181 0.1713 (  6654 PWs)   bands (ev):

   -37.0254 -37.0254 -37.0228 -37.0228 -37.0131 -37.0131 -37.0088 -37.0088
   -36.7864 -36.7864 -36.7311 -36.7311 -36.1349 -36.1349 -36.1327 -36.1327
   -36.1272 -36.1272 -36.1210 -36.1210 -36.1150 -36.1150 -36.1134 -36.1134
   -35.8984 -35.8984 -35.8699 -35.8699 -35.8257 -35.8257 -13.1976 -13.1976
   -13.1972 -13.1972 -13.1753 -13.1753 -13.1750 -13.1750 -10.2540 -10.2540
   -10.2499 -10.2499 -10.2151 -10.2151 -10.2109 -10.2109 -10.1827 -10.1827
   -10.1780 -10.1780  -1.8212  -1.8212  -1.6184  -1.6184  -1.5134  -1.5134
     0.5971   0.5971   1.0366   1.0366   5.0995   5.0995   7.1231   7.1231
     7.1458   7.1458   7.7841   7.7841   8.0317   8.0317   8.2344   8.2344
     8.6276   8.6276  10.0858  10.0858  11.0114  11.0114  11.9915  11.9915
    13.4208  13.4208  14.1391  14.1391  14.6419  14.6419  15.2576  15.2576
    15.2842  15.2842  16.1969  16.1969  17.7051  17.7051  20.8283  20.8283
    21.4021  21.4021  21.7895  21.7895  21.9122  21.9122  22.0199  22.0199
    22.9214  22.9214  23.3324  23.3324  23.7348  23.7348  24.0200  24.0200
    24.1743  24.1743  24.6766  24.6766  25.3439  25.3439  25.4923  25.4923
    25.5689  25.5689  25.9789  25.9789  26.1913  26.1913  26.9614  26.9614
    27.7796  27.7796  28.1287  28.1287  28.5563  28.5563  28.9053  28.9053
    29.6697  29.6697  29.8339  29.8339  30.6342  30.6342  30.6725  30.6725
    30.9590  30.9590  31.0467  31.0467  31.3496  31.3496  31.7850  31.7850
    31.9138  31.9138  32.1105  32.1105  32.4576  32.4576  32.8301  32.8301
    33.3297  33.3297  33.7085  33.7085  33.9472  33.9472  34.2986  34.2986
    34.5690  34.5690  34.7847  34.7847  35.7103  35.7103  35.8102  35.8102
    35.9567  35.9567  37.2234  37.2234  37.7587  37.7587  38.7242  38.7242
    38.7832  38.7832  38.8975  38.8975  39.5112  39.5112  39.7069  39.7069
    39.9814  39.9814  40.0935  40.0935  40.3760  40.3760  40.7333  40.7333
    41.4750  41.4750  41.5668  41.5668  41.8399  41.8399  42.0371  42.0371
    42.7028  42.7028  43.8848  43.8848  43.9673  43.9673  44.2082  44.2082
    44.4732  44.4732  44.6192  44.6192  44.9240  44.9240  45.0087  45.0087
    45.2718  45.2718  45.6015  45.6015  45.7524  45.7524  46.0350  46.0350
    46.1691  46.1691  46.2167  46.2167  46.3580  46.3580  46.8550  46.8550
    47.3979  47.3979  47.7141  47.7141  48.1663  48.1663  49.1655  49.1655
    49.4615  49.4615  49.8088  49.8088  50.0031  50.0031  50.7919  50.7919
    50.8456  50.8456  51.2315  51.2315  51.6012  51.6012  51.9724  51.9724
    52.0357  52.0357  52.2167  52.2167  52.3875  52.3875  52.4648  52.4648
    52.7675  52.7675  53.0325  53.0325  53.5547  53.5547  53.5855  53.5855
    54.9006  54.9006  54.9529  54.9529  56.2415  56.2415  56.3268  56.3268
    56.6166  56.6166  57.9551  57.9551  58.4238  58.4238  58.6768  58.6768
    58.8916  58.8916  58.9948  58.9948  59.2688  59.2688  59.5630  59.5630
    60.0709  60.0709  60.1124  60.1124  61.0086  61.0086  61.1847  61.1847
    61.2367  61.2367  61.4188  61.4188  61.5226  61.5226  61.6674  61.6674
    61.9371  61.9371  62.0795  62.0795  62.3377  62.3377  62.3743  62.3743
    62.4752  62.4752  62.9020  62.9020  62.9537  62.9537  63.0789  63.0789
    63.4904  63.4904  63.7744  63.7744  64.2846  64.2846  64.3742  64.3742
    64.4274  64.4274  64.6204  64.6204  65.1405  65.1405  65.5083  65.5083
    66.0305  66.0305  66.3638  66.3638  67.0525  67.0525  67.0927  67.0927
    67.2265  67.2265  67.3330  67.3330  67.5002  67.5002  67.8096  67.8096
    68.3098  68.3098  68.6470  68.6470  68.6575  68.6575  68.8319  68.8319
    69.1636  69.1636  69.4580  69.4580  69.6744  69.6744  70.2600  70.2600
    70.4223  70.4223  70.5069  70.5069  70.7851  70.7851  70.8802  70.8802
    70.9841  70.9841  71.2565  71.2565  71.4184  71.4184  71.5177  71.5177
    71.8751  71.8751  71.8996  71.8996  72.0788  72.0788  72.1347  72.1347
    72.3121  72.3121  72.6884  72.6884  73.0989  73.0989  73.2115  73.2115
    73.3184  73.3184  73.7360  73.7360  74.4554  74.4554  74.8244  74.8244
    75.0790  75.0790  75.2069  75.2069  75.2377  75.2377  76.1333  76.1333
    76.6246  76.6246  76.6306  76.6306  76.7983  76.7983  77.0570  77.0570
    77.1655  77.1655  77.2184  77.2184  77.6313  77.6313  77.8363  77.8363
    77.8736  77.8736  78.2858  78.2858  78.4156  78.4156  78.7342  78.7342
    78.9067  78.9067  78.9552  78.9552  79.2482  79.2482  79.3522  79.3522
    79.5667  79.5667  79.6630  79.6630  79.9297  79.9297  79.9898  79.9898
    80.0417  80.0417  80.3124  80.3124  80.9168  80.9168  81.0200  81.0200
    81.9346  81.9346  82.0441  82.0441  82.1969  82.1969  82.2419  82.2419
    82.5262  82.5262  82.5648  82.5648  82.8204  82.8204  83.0610  83.0610
    83.5136  83.5136  83.7928  83.7928

     Writing all to output data dir ./outdir/Bi2Se3.save/

     init_run     :      7.14s CPU      3.05s WALL (       1 calls)
     electrons    :  68860.20s CPU  17503.53s WALL (       1 calls)

     Called by init_run:
     wfcinit      :      0.00s CPU      0.00s WALL (       1 calls)
     potinit      :      3.37s CPU      1.26s WALL (       1 calls)
     hinit0       :      3.68s CPU      1.68s WALL (       1 calls)

     Called by electrons:
     c_bands      :  68860.16s CPU  17503.51s WALL (       1 calls)
     v_of_rho     :      1.47s CPU      0.49s WALL (       1 calls)

     Called by c_bands:
     init_us_2    :      0.53s CPU      0.23s WALL (      61 calls)
     init_us_2:cp :      0.53s CPU      0.23s WALL (      61 calls)
     cegterg      :  65355.50s CPU  16584.74s WALL (     143 calls)

     Called by *egterg:
     cdiaghg      :   1698.67s CPU    616.60s WALL (    2523 calls)
     h_psi        :  61611.99s CPU  15534.02s WALL (    2666 calls)
     g_psi        :     81.82s CPU     16.50s WALL (    2462 calls)

     Called by h_psi:
     h_psi:calbec :    307.38s CPU     66.57s WALL (    2666 calls)
     vloc_psi     :  60973.60s CPU  15386.75s WALL (    2666 calls)
     add_vuspsi   :    236.07s CPU     61.35s WALL (    2666 calls)

     General routines
     calbec       :    307.31s CPU     66.56s WALL (    2666 calls)
     fft          :      3.97s CPU      1.49s WALL (      18 calls)
     ffts         :      1.16s CPU      0.56s WALL (       4 calls)
     fftw         :  41699.82s CPU  10568.74s WALL ( 2247896 calls)
     interpolate  :      1.59s CPU      0.67s WALL (       4 calls)
     davcio       :      7.30s CPU      4.67s WALL (     122 calls)

     Parallel routines

     PWSCF        :     19h 7m CPU      4h51m WALL


   This run was terminated on:   8:43:34  18Oct2022            

=------------------------------------------------------------------------------=
   JOB DONE.
=------------------------------------------------------------------------------=
