
     Program PWSCF v.7.1 starts on 17Oct2022 at 21:40: 4 
        Git branch: all_p_qe-7.1
        Last git commit: 64b50ae7008d8f92f2d90b8cd0971bd852daf481
        Last git commit date: Tue Sep 27 11:29:25 2022 -0300
        Last git commit subject: fix: write p instead of |p|^2

     This program is part of the open-source Quantum ESPRESSO suite
     for quantum simulation of materials; please cite
         "P. Giannozzi et al., J. Phys.:Condens. Matter 21 395502 (2009);
         "P. Giannozzi et al., J. Phys.:Condens. Matter 29 465901 (2017);
         "P. Giannozzi et al., J. Chem. Phys. 152 154105 (2020);
          URL http://www.quantum-espresso.org", 
     in publications or presentations arising from this work. More details at
     http://www.quantum-espresso.org/quote

     Parallel version (MPI & OpenMP), running on       4 processor cores
     Number of MPI processes:                 1
     Threads/MPI process:                     4

     MPI processes distributed on     1 nodes
     25949 MiB available memory on the printing compute node when the environment starts

     Reading input from scf.in

     Current dimensions of program PWSCF are:
     Max number of different atomic species (ntypx) = 10
     Max number of k-points (npk) =  40000
     Max angular momentum in pseudopotentials (lmaxx) =  4

     Subspace diagonalization in iterative solution of the eigenvalue problem:
     a serial algorithm will be used


     G-vector sticks info
     --------------------
     sticks:   dense  smooth     PW     G-vecs:    dense   smooth      PW
     Sum        6353    2551    779               210205    53195    9019

     Using Slab Decomposition



     bravais-lattice index     =            5
     lattice parameter (alat)  =      18.3932  a.u.
     unit-cell volume          =     847.1634 (a.u.)^3
     number of atoms/cell      =            5
     number of atomic types    =            2
     number of electrons       =        78.00
     number of Kohn-Sham states=          500
     kinetic-energy cutoff     =      60.0000  Ry
     charge density cutoff     =     600.0000  Ry
     scf convergence threshold =      1.0E-08
     mixing beta               =       0.2500
     number of iterations used =            8  plain     mixing
     Exchange-correlation= PBE
                           (   1   4   3   4   0   0   0)
     Non magnetic calculation with spin-orbit


     celldm(1)=  18.393153  celldm(2)=   0.000000  celldm(3)=   0.000000
     celldm(4)=   0.919190  celldm(5)=   0.000000  celldm(6)=   0.000000

     crystal axes: (cart. coord. in units of alat)
               a(1) = (   0.201010  -0.116053   0.972691 )  
               a(2) = (   0.000000   0.232106   0.972691 )  
               a(3) = (  -0.201010  -0.116053   0.972691 )  

     reciprocal axes: (cart. coord. in units 2 pi/alat)
               b(1) = (  2.487444 -1.436127  0.342692 )  
               b(2) = (  0.000000  2.872253  0.342692 )  
               b(3) = ( -2.487444 -1.436127  0.342692 )  


     PseudoPot. # 1 for Bi read from file:
     ../../pseudos/ONCVPSP/abinit/Bi_ONCV_PBE_fr.upf
     MD5 check sum: 67fe3f209319bd312dc946f0524d3915
     Pseudo is Norm-conserving + core correction, Zval = 15.0
     Generated using ONCVPSP code by D. R. Hamann
     Using radial grid of 1562 points, 10 beta functions with: 
                l(1) =   0
                l(2) =   0
                l(3) =   1
                l(4) =   1
                l(5) =   1
                l(6) =   1
                l(7) =   2
                l(8) =   2
                l(9) =   2
               l(10) =   2

     PseudoPot. # 2 for Se read from file:
     ../../pseudos/ONCVPSP/abinit/Se_ONCV_PBE_fr.upf
     MD5 check sum: 19a0efce42a680f7a7be0bdd339d90c8
     Pseudo is Norm-conserving + core correction, Zval = 16.0
     Generated using ONCVPSP code by D. R. Hamann
     Using radial grid of 1214 points, 10 beta functions with: 
                l(1) =   0
                l(2) =   0
                l(3) =   1
                l(4) =   1
                l(5) =   1
                l(6) =   1
                l(7) =   2
                l(8) =   2
                l(9) =   2
               l(10) =   2

     atomic species   valence    mass     pseudopotential
        Bi            15.00   208.98000     Bi( 1.00)
        Se            16.00    78.97100     Se( 1.00)

     12 Sym. Ops., with inversion, found



   Cartesian axes

     site n.     atom                  positions (alat units)
         1           Bi  tau(   1) = (   0.0000000   0.0000000   1.1715031  )
         2           Bi  tau(   2) = (  -0.0000000   0.0000000   1.7465686  )
         3           Se  tau(   3) = (   0.0000000   0.0000000   0.0000000  )
         4           Se  tau(   4) = (  -0.0000000   0.0000000   2.3074808  )
         5           Se  tau(   5) = (   0.0000000   0.0000000   0.6105908  )

     number of k points=    44  Gaussian smearing, width (Ry)=  0.0100
                       cart. coord. in units 2pi/alat
        k(    1) = (   0.0000000   0.0000000   0.0000000), wk =   0.0029155
        k(    2) = (  -0.3553492  -0.2051609   0.0489560), wk =   0.0174927
        k(    3) = (  -0.7106983  -0.4103219   0.0979120), wk =   0.0174927
        k(    4) = (  -1.0660475  -0.6154828   0.1468680), wk =   0.0174927
        k(    5) = (  -0.3553492   0.2051609   0.0979120), wk =   0.0174927
        k(    6) = (  -0.7106983   0.0000000   0.1468680), wk =   0.0349854
        k(    7) = (  -1.0660475  -0.2051609   0.1958240), wk =   0.0349854
        k(    8) = (   1.0660475   1.0258047  -0.0979120), wk =   0.0349854
        k(    9) = (   0.7106983   0.8206438  -0.0489560), wk =   0.0349854
        k(   10) = (   0.3553492   0.6154828   0.0000000), wk =   0.0174927
        k(   11) = (  -0.7106983   0.4103219   0.1958240), wk =   0.0174927
        k(   12) = (  -1.0660475   0.2051609   0.2447800), wk =   0.0349854
        k(   13) = (   1.0660475   1.4361266  -0.0489560), wk =   0.0349854
        k(   14) = (   0.7106983   1.2309656   0.0000000), wk =   0.0174927
        k(   15) = (  -1.0660475   0.6154828   0.2937361), wk =   0.0174927
        k(   16) = (   1.0660475   1.8464485   0.0000000), wk =   0.0174927
        k(   17) = (   0.0000000   0.0000000   0.1468680), wk =   0.0058309
        k(   18) = (  -0.3553492  -0.2051609   0.1958240), wk =   0.0174927
        k(   19) = (  -0.7106983  -0.4103219   0.2447800), wk =   0.0174927
        k(   20) = (   1.4213967   0.8206438  -0.0489560), wk =   0.0174927
        k(   21) = (   1.0660475   0.6154828   0.0000000), wk =   0.0174927
        k(   22) = (   0.7106983   0.4103219   0.0489560), wk =   0.0174927
        k(   23) = (  -0.3553492   0.2051609   0.2447800), wk =   0.0174927
        k(   24) = (  -0.7106983   0.0000000   0.2937361), wk =   0.0349854
        k(   25) = (   1.4213967   1.2309656   0.0000000), wk =   0.0349854
        k(   26) = (   1.0660475   1.0258047   0.0489560), wk =   0.0349854
        k(   27) = (   0.7106983   0.8206438   0.0979120), wk =   0.0349854
        k(   28) = (  -0.7106983   0.4103219   0.3426921), wk =   0.0174927
        k(   29) = (   1.4213967   1.6412875   0.0489560), wk =   0.0349854
        k(   30) = (   1.0660475   1.4361266   0.0979120), wk =   0.0349854
        k(   31) = (   0.7106983   1.2309656   0.1468680), wk =   0.0349854
        k(   32) = (   1.4213967  -0.8206438  -0.2447800), wk =   0.0174927
        k(   33) = (   1.0660475  -1.0258047  -0.1958240), wk =   0.0349854
        k(   34) = (   1.0660475  -0.6154828  -0.1468680), wk =   0.0174927
        k(   35) = (   0.0000000   0.0000000   0.2937361), wk =   0.0058309
        k(   36) = (  -0.3553492  -0.2051609   0.3426921), wk =   0.0174927
        k(   37) = (   1.7767459   1.0258047   0.0489560), wk =   0.0174927
        k(   38) = (   1.4213967   0.8206438   0.0979120), wk =   0.0174927
        k(   39) = (  -0.3553492   0.2051609   0.3916481), wk =   0.0174927
        k(   40) = (   1.7767459   1.4361266   0.0979120), wk =   0.0349854
        k(   41) = (   1.4213967   1.2309656   0.1468680), wk =   0.0349854
        k(   42) = (   1.7767459  -1.0258047  -0.1958240), wk =   0.0174927
        k(   43) = (   0.0000000   0.0000000   0.4406041), wk =   0.0058309
        k(   44) = (   2.1320950   1.2309656   0.1468680), wk =   0.0174927

     Dense  grid:   210205 G-vectors     FFT dimensions: ( 144, 144, 144)

     Smooth grid:    53195 G-vectors     FFT dimensions: (  96,  96,  96)

     Estimated max dynamical RAM per process >       5.74 GB

     Initial potential from superposition of free atoms

     starting charge      77.9976, renormalised to      78.0000
     Starting wfcs are   90 randomized atomic wfcs +  410 random wfcs

     total cpu time spent up to now is      699.3 secs

     per-process dynamical memory:  1205.5 Mb

     Self-consistent Calculation

     iteration #  1     ecut=    60.00 Ry     beta= 0.25
     Davidson diagonalization with overlap
     ethr =  1.00E-02,  avg # of iterations =  7.2

     Threshold (ethr) on eigenvalues was too large:
     Diagonalizing with lowered threshold

     Davidson diagonalization with overlap
     ethr =  2.05E-04,  avg # of iterations =  1.1

     total cpu time spent up to now is     6121.6 secs

     total energy              =   -1054.61245985 Ry
     estimated scf accuracy    <       0.16001553 Ry

     iteration #  2     ecut=    60.00 Ry     beta= 0.25
     Davidson diagonalization with overlap
     ethr =  2.05E-04,  avg # of iterations =  1.1

     total cpu time spent up to now is     7911.0 secs

     total energy              =   -1054.61598660 Ry
     estimated scf accuracy    <       0.04743822 Ry

     iteration #  3     ecut=    60.00 Ry     beta= 0.25
     Davidson diagonalization with overlap
     ethr =  6.08E-05,  avg # of iterations =  2.1

     total cpu time spent up to now is     9745.4 secs

     total energy              =   -1054.61801606 Ry
     estimated scf accuracy    <       0.03225256 Ry

     iteration #  4     ecut=    60.00 Ry     beta= 0.25
     Davidson diagonalization with overlap
     ethr =  4.13E-05,  avg # of iterations =  1.1

     total cpu time spent up to now is    11493.8 secs

     total energy              =   -1054.62015261 Ry
     estimated scf accuracy    <       0.00373230 Ry

     iteration #  5     ecut=    60.00 Ry     beta= 0.25
     Davidson diagonalization with overlap
     ethr =  4.78E-06,  avg # of iterations =  1.9

     total cpu time spent up to now is    13299.3 secs

     total energy              =   -1054.62051303 Ry
     estimated scf accuracy    <       0.00024079 Ry

     iteration #  6     ecut=    60.00 Ry     beta= 0.25
     Davidson diagonalization with overlap
     ethr =  3.09E-07,  avg # of iterations =  3.0

     total cpu time spent up to now is    15134.3 secs

     total energy              =   -1054.62054099 Ry
     estimated scf accuracy    <       0.00002468 Ry

     iteration #  7     ecut=    60.00 Ry     beta= 0.25
     Davidson diagonalization with overlap
     ethr =  3.16E-08,  avg # of iterations =  1.4

     total cpu time spent up to now is    16890.0 secs

     total energy              =   -1054.62054425 Ry
     estimated scf accuracy    <       0.00000623 Ry

     iteration #  8     ecut=    60.00 Ry     beta= 0.25
     Davidson diagonalization with overlap
     ethr =  7.98E-09,  avg # of iterations =  1.2

     total cpu time spent up to now is    18682.4 secs

     total energy              =   -1054.62054501 Ry
     estimated scf accuracy    <       0.00000013 Ry

     iteration #  9     ecut=    60.00 Ry     beta= 0.25
     Davidson diagonalization with overlap
     ethr =  1.64E-10,  avg # of iterations =  2.0

     total cpu time spent up to now is    20501.4 secs

     total energy              =   -1054.62054508 Ry
     estimated scf accuracy    <       0.00000002 Ry

     iteration # 10     ecut=    60.00 Ry     beta= 0.25
     Davidson diagonalization with overlap
     ethr =  2.08E-11,  avg # of iterations =  1.0

     total cpu time spent up to now is    22290.6 secs

     End of self-consistent calculation

          k = 0.0000 0.0000 0.0000 (  6591 PWs)   bands (ev):

   -37.0221 -37.0221 -37.0084 -37.0084 -36.9926 -36.9926 -36.9909 -36.9909
   -36.7809 -36.7809 -36.7113 -36.7113 -36.1301 -36.1301 -36.1195 -36.1195
   -36.1165 -36.1165 -36.1100 -36.1100 -36.0953 -36.0953 -36.0895 -36.0895
   -35.8916 -35.8916 -35.8628 -35.8628 -35.8013 -35.8013 -13.2060 -13.2060
   -13.2055 -13.2055 -13.1749 -13.1749 -13.1728 -13.1728 -10.2508 -10.2508
   -10.2485 -10.2485 -10.2049 -10.2049 -10.2036 -10.2036 -10.2021 -10.2021
   -10.1976 -10.1976  -3.8598  -3.8598  -3.0143  -3.0143  -2.1295  -2.1295
     1.7464   1.7464   2.6240   2.6240   8.5475   8.5475   8.7325   8.7325
     9.3367   9.3367   9.5315   9.5315   9.7093   9.7093   9.8821   9.8821
    10.1338  10.1338  10.4035  10.4035  11.3413  11.3413  11.9131  11.9131
    12.9789  12.9789  13.0263  13.0263  13.8105  13.8105  14.6131  14.6131
    15.2449  15.2449  17.0163  17.0163  18.5550  18.5550  18.7433  18.7433
    18.8451  18.8451  19.3910  19.3910  19.4030  19.4030  19.4108  19.4108
    20.3734  20.3734  20.3790  20.3790  20.4483  20.4483  21.0053  21.0053
    21.0654  21.0654  22.5892  22.5892  22.8951  22.8951  23.3334  23.3334
    23.9124  23.9124  23.9643  23.9643  24.6661  24.6661  25.1556  25.1556
    25.1697  25.1697  26.4866  26.4866  26.6457  26.6457  28.3418  28.3418
    29.2867  29.2867  30.3934  30.3934  30.7439  30.7439  31.4217  31.4217
    31.5222  31.5222  32.4935  32.4935  32.5005  32.5005  32.8803  32.8803
    33.6494  33.6494  33.8600  33.8600  35.5396  35.5396  35.7735  35.7735
    36.4155  36.4155  36.8164  36.8164  37.1807  37.1807  37.7851  37.7851
    38.2894  38.2894  38.6050  38.6050  38.7330  38.7330  38.8412  38.8412
    39.2070  39.2070  39.5748  39.5748  39.7665  39.7665  40.1554  40.1554
    40.1654  40.1654  40.4463  40.4463  40.5155  40.5155  40.6571  40.6571
    40.6617  40.6617  41.3933  41.3933  41.8592  41.8592  41.8963  41.8963
    42.1517  42.1517  43.9500  43.9500  43.9515  43.9515  44.0396  44.0396
    44.1137  44.1137  44.8449  44.8449  44.9183  44.9183  45.3083  45.3083
    45.3600  45.3600  45.6487  45.6487  45.6679  45.6679  45.7352  45.7352
    45.9844  45.9844  46.1271  46.1271  46.6816  46.6816  46.8094  46.8094
    46.9876  46.9876  47.4204  47.4204  47.4730  47.4730  47.7319  47.7319
    47.8370  47.8370  47.9137  47.9137  48.2674  48.2674  48.3960  48.3960
    48.8306  48.8306  49.3124  49.3124  51.3926  51.3926  51.4126  51.4126
    51.5780  51.5780  51.6224  51.6224  51.9339  51.9339  52.2325  52.2325
    52.6637  52.6637  52.9736  52.9736  53.2306  53.2306  53.2403  53.2403
    53.4654  53.4654  53.7284  53.7284  53.8349  53.8349  54.1462  54.1462
    54.1859  54.1859  54.2140  54.2140  54.2419  54.2419  54.2896  54.2896
    54.6130  54.6130  55.0135  55.0135  55.1009  55.1009  55.8030  55.8030
    55.8073  55.8073  55.9799  55.9799  57.3107  57.3107  57.5253  57.5253
    57.5507  57.5507  57.9310  57.9310  57.9539  57.9539  58.0587  58.0587
    58.1649  58.1649  58.7551  58.7551  58.8458  58.8458  59.1271  59.1271
    59.1834  59.1834  59.2022  59.2022  59.5434  59.5434  59.5738  59.5738
    59.8522  59.8522  60.2814  60.2814  60.5301  60.5301  60.6329  60.6329
    61.1555  61.1555  61.2177  61.2177  61.4448  61.4448  61.7890  61.7890
    61.8446  61.8446  63.4915  63.4915  63.5192  63.5192  63.5755  63.5755
    63.6114  63.6114  63.6624  63.6624  63.7836  63.7836  64.2252  64.2252
    64.2873  64.2873  64.3836  64.3836  64.8255  64.8255  64.9432  64.9432
    65.2419  65.2419  65.3484  65.3484  65.4578  65.4578  66.0216  66.0216
    66.2892  66.2892  66.6096  66.6096  67.5355  67.5355  68.4061  68.4061
    68.5967  68.5967  68.8090  68.8090  68.8096  68.8096  68.8210  68.8210
    69.9985  69.9985  71.0872  71.0872  71.1058  71.1058  71.2268  71.2268
    71.2762  71.2762  72.0145  72.0145  72.0543  72.0543  72.1410  72.1410
    73.2596  73.2596  73.7021  73.7021  74.7327  74.7327  74.8388  74.8388
    74.8801  74.8801  74.9317  74.9317  75.1206  75.1206  75.3228  75.3228
    75.5497  75.5497  76.4289  76.4289  76.6517  76.6517  76.7773  76.7773
    76.7788  76.7788  77.2521  77.2521  77.3482  77.3482  77.3662  77.3662
    77.4133  77.4133  77.9583  77.9583  78.0163  78.0163  78.8486  78.8486
    78.8617  78.8617  78.9392  78.9392  79.0022  79.0022  79.0765  79.0765
    79.2195  79.2195  79.3293  79.3293  80.3530  80.3530  81.3027  81.3027
    81.6771  81.6771  81.7313  81.7313  81.8063  81.8063  81.8242  81.8242
    83.6827  83.6827  83.8401  83.8401  83.8738  83.8738  84.3135  84.3135
    85.2562  85.2562  85.5296  85.5296  85.5320  85.5320  86.8305  86.8305
    86.9255  86.9255  87.1111  87.1111  87.2000  87.2000  87.2012  87.2013
    87.2428  87.2429  87.7540  87.8546

          k =-0.3553-0.2052 0.0490 (  6628 PWs)   bands (ev):

   -37.0269 -37.0269 -37.0185 -37.0185 -37.0002 -37.0002 -36.9988 -36.9988
   -36.7879 -36.7879 -36.7194 -36.7194 -36.1338 -36.1338 -36.1279 -36.1279
   -36.1252 -36.1252 -36.1191 -36.1191 -36.1009 -36.1009 -36.0991 -36.0991
   -35.8979 -35.8979 -35.8708 -35.8708 -35.8091 -35.8091 -13.2042 -13.2042
   -13.2037 -13.2037 -13.1754 -13.1754 -13.1731 -13.1731 -10.2482 -10.2482
   -10.2452 -10.2452 -10.2089 -10.2089 -10.2085 -10.2085 -10.1990 -10.1990
   -10.1952 -10.1952  -3.6401  -3.6401  -2.8217  -2.8217  -1.9694  -1.9694
     1.6646   1.6646   2.4909   2.4909   7.6250   7.6250   7.8147   7.8147
     8.5574   8.5574   8.9796   8.9796   9.4445   9.4445   9.9346   9.9346
    10.1803  10.1803  10.5118  10.5118  10.7654  10.7654  12.5674  12.5674
    12.8221  12.8221  14.0009  14.0009  14.2546  14.2546  14.7877  14.7878
    15.3187  15.3187  16.7153  16.7153  17.5591  17.5591  18.6775  18.6775
    18.9174  18.9174  19.3511  19.3511  19.8239  19.8239  19.8944  19.8944
    20.7903  20.7903  21.4342  21.4342  21.5152  21.5152  22.2915  22.2915
    22.3398  22.3398  22.5665  22.5665  22.6473  22.6473  23.1062  23.1062
    23.6745  23.6745  23.9506  23.9506  24.6999  24.6999  25.5314  25.5314
    26.4108  26.4108  27.7622  27.7622  28.4678  28.4678  28.7973  28.7973
    29.4653  29.4653  30.0626  30.0626  30.6618  30.6618  31.0598  31.0598
    31.2952  31.2952  32.0658  32.0659  32.1267  32.1267  33.2005  33.2006
    33.6830  33.6830  34.0903  34.0903  34.3265  34.3265  34.6805  34.6805
    34.9407  34.9407  35.5441  35.5441  35.6675  35.6675  35.8442  35.8442
    36.3175  36.3175  36.4699  36.4699  37.9628  37.9628  38.3559  38.3559
    38.4582  38.4582  38.7115  38.7115  39.5729  39.5729  40.0162  40.0162
    40.2490  40.2490  41.0044  41.0044  41.1213  41.1213  41.2046  41.2046
    41.4542  41.4542  41.5859  41.5859  42.2279  42.2279  42.4143  42.4143
    42.6964  42.6964  43.4287  43.4287  43.5947  43.5947  43.8704  43.8704
    44.1158  44.1158  44.5347  44.5347  44.7598  44.7598  45.1146  45.1146
    45.2168  45.2168  45.9516  45.9516  45.9998  45.9998  46.1111  46.1112
    46.3898  46.3899  46.6049  46.6049  46.8687  46.8687  47.2348  47.2348
    47.3208  47.3208  47.4155  47.4155  47.5330  47.5330  47.6415  47.6415
    47.8315  47.8315  47.9207  47.9207  48.4363  48.4363  48.8427  48.8427
    48.9994  48.9994  49.6956  49.6956  49.8001  49.8001  50.1088  50.1088
    50.4583  50.4583  50.7962  50.7962  51.2464  51.2464  51.3774  51.3774
    51.7963  51.7963  51.8830  51.8830  51.9671  51.9671  52.8676  52.8676
    53.0477  53.0477  53.1491  53.1491  53.7932  53.7932  54.2588  54.2588
    54.3831  54.3831  54.7470  54.7470  54.8630  54.8630  54.9734  54.9734
    55.0535  55.0535  55.5861  55.5861  56.3973  56.3973  56.4375  56.4375
    56.6192  56.6192  56.8624  56.8624  57.0550  57.0550  57.5348  57.5348
    57.7404  57.7404  57.8376  57.8376  57.9946  57.9946  58.2488  58.2488
    58.4533  58.4533  58.7116  58.7116  59.3715  59.3715  59.4170  59.4170
    59.5756  59.5756  59.9463  59.9463  60.0250  60.0250  60.3165  60.3165
    60.3677  60.3677  60.7574  60.7574  60.9592  60.9592  61.3181  61.3181
    61.6164  61.6164  61.7652  61.7652  61.8844  61.8844  62.4228  62.4228
    62.5563  62.5563  62.9622  62.9622  63.4099  63.4099  63.4497  63.4497
    63.8073  63.8073  64.1540  64.1540  64.4891  64.4891  64.9499  64.9499
    65.0379  65.0379  65.4190  65.4190  65.5049  65.5049  65.6356  65.6356
    66.4170  66.4170  66.6149  66.6149  66.9619  66.9619  67.1368  67.1368
    67.2928  67.2928  67.4764  67.4764  67.8009  67.8009  68.5849  68.5849
    68.7942  68.7942  68.9520  68.9520  69.0454  69.0454  69.0952  69.0952
    69.9849  69.9849  70.5864  70.5864  71.3999  71.3999  71.4724  71.4724
    71.8787  71.8787  72.5937  72.5937  72.7978  72.7978  72.8600  72.8600
    73.1665  73.1665  73.5201  73.5201  74.1869  74.1869  74.6177  74.6177
    75.0954  75.0954  75.2206  75.2206  75.2712  75.2712  75.4365  75.4365
    75.5194  75.5194  75.9401  75.9401  76.3889  76.3889  76.5565  76.5565
    76.6016  76.6016  76.6577  76.6577  77.2164  77.2164  77.6114  77.6114
    77.9815  77.9815  78.0682  78.0682  78.4548  78.4548  78.5373  78.5373
    78.8007  78.8007  79.2650  79.2650  79.4662  79.4662  79.6416  79.6416
    80.6351  80.6351  80.7250  80.7250  80.9011  80.9011  80.9379  80.9379
    81.4070  81.4070  81.6953  81.6953  81.8725  81.8725  82.0233  82.0233
    82.4212  82.4212  82.7565  82.7565  82.8048  82.8048  82.9118  82.9118
    83.6261  83.6261  83.9545  83.9545  83.9941  83.9941  84.5820  84.5820
    84.7607  84.7607  84.7984  84.7984  85.3277  85.3277  85.4273  85.4273
    85.6272  85.6272  85.7524  85.7524

          k =-0.7107-0.4103 0.0979 (  6651 PWs)   bands (ev):

   -37.0289 -37.0289 -37.0222 -37.0222 -37.0114 -37.0114 -37.0029 -37.0029
   -36.7910 -36.7910 -36.7268 -36.7268 -36.1369 -36.1368 -36.1318 -36.1318
   -36.1284 -36.1284 -36.1228 -36.1228 -36.1129 -36.1129 -36.1044 -36.1044
   -35.9014 -35.9014 -35.8746 -35.8746 -35.8178 -35.8178 -13.2006 -13.2006
   -13.2000 -13.2000 -13.1760 -13.1760 -13.1739 -13.1738 -10.2483 -10.2482
   -10.2433 -10.2433 -10.2148 -10.2148 -10.2123 -10.2123 -10.1917 -10.1917
   -10.1878 -10.1878  -3.0083  -3.0083  -2.3081  -2.3081  -1.5755  -1.5755
     1.2267   1.2267   2.0139   2.0139   6.2976   6.2976   6.9418   6.9418
     7.3401   7.3402   8.3320   8.3320   8.5735   8.5736   9.2548   9.2548
     9.8590   9.8590  10.1386  10.1386  10.9539  10.9539  12.2318  12.2318
    13.3785  13.3785  13.9847  13.9847  14.5199  14.5199  15.4469  15.4469
    15.7061  15.7061  16.2647  16.2647  18.0520  18.0520  18.7854  18.7855
    19.8498  19.8498  20.0747  20.0747  20.1601  20.1601  21.1499  21.1499
    21.2931  21.2931  22.5082  22.5082  22.6012  22.6012  22.8988  22.8988
    22.9511  22.9511  23.3365  23.3365  23.9783  23.9783  25.2049  25.2049
    25.5581  25.5581  25.7612  25.7612  26.3543  26.3543  26.9409  26.9409
    27.2173  27.2173  28.5375  28.5375  29.3266  29.3266  29.4765  29.4765
    29.6413  29.6413  29.9894  29.9894  30.1848  30.1848  30.3493  30.3493
    30.9180  30.9180  30.9800  30.9800  31.5428  31.5428  31.7548  31.7548
    31.8498  31.8498  32.2782  32.2782  32.3604  32.3604  32.8402  32.8402
    33.7250  33.7250  33.9994  33.9994  34.8786  34.8786  35.8442  35.8442
    36.0866  36.0866  36.2087  36.2087  36.6137  36.6137  36.7842  36.7842
    37.7501  37.7501  38.0920  38.0920  38.4615  38.4615  38.9860  38.9860
    39.4049  39.4049  39.9869  39.9869  40.4345  40.4345  40.7887  40.7887
    41.1062  41.1062  41.3953  41.3953  41.5925  41.5925  42.1980  42.1980
    42.4098  42.4098  42.5775  42.5775  42.6609  42.6609  43.0505  43.0505
    43.3536  43.3536  43.4530  43.4530  43.7249  43.7249  43.8053  43.8053
    44.5193  44.5193  44.7711  44.7711  45.0913  45.0913  45.5364  45.5364
    45.7035  45.7035  46.1574  46.1574  46.3703  46.3703  46.6414  46.6414
    46.9666  46.9666  47.5398  47.5398  47.6737  47.6737  47.8961  47.8961
    48.1014  48.1014  48.3364  48.3364  48.4222  48.4222  48.8921  48.8921
    49.7970  49.7970  50.0218  50.0218  50.2273  50.2273  50.3267  50.3267
    50.8856  50.8856  51.1640  51.1640  51.5285  51.5285  51.6805  51.6805
    52.0480  52.0480  52.2509  52.2509  52.8090  52.8090  52.8434  52.8434
    53.0300  53.0300  53.7440  53.7440  53.8807  53.8807  54.1411  54.1411
    54.2656  54.2656  54.5798  54.5798  55.2093  55.2093  55.2785  55.2785
    55.4720  55.4720  56.1429  56.1429  56.2289  56.2289  56.4926  56.4926
    56.6336  56.6336  57.0800  57.0800  57.7413  57.7413  57.8287  57.8287
    57.9956  57.9956  58.1884  58.1884  58.9189  58.9189  59.0539  59.0539
    59.2302  59.2302  59.3322  59.3322  59.8376  59.8376  59.9544  59.9544
    60.2465  60.2465  60.7886  60.7886  61.1498  61.1498  61.1831  61.1831
    61.2763  61.2763  61.9978  61.9978  62.3404  62.3404  62.6101  62.6101
    62.9422  62.9422  63.1874  63.1874  63.5639  63.5639  63.7434  63.7434
    64.1308  64.1308  64.3052  64.3052  64.4774  64.4774  64.5991  64.5991
    64.8910  64.8910  65.2695  65.2695  65.8137  65.8137  66.3832  66.3832
    66.7393  66.7393  66.9761  66.9761  67.2431  67.2432  67.5348  67.5348
    67.9812  67.9812  68.0480  68.0480  68.3237  68.3237  68.9006  68.9006
    68.9812  68.9812  69.3644  69.3644  69.4655  69.4655  69.5394  69.5394
    69.7042  69.7042  69.9774  69.9774  70.3595  70.3595  70.6208  70.6208
    70.7885  70.7885  71.2765  71.2765  71.6637  71.6637  72.0966  72.0966
    72.1077  72.1077  72.3614  72.3614  72.4560  72.4560  72.5876  72.5876
    73.1289  73.1289  73.5290  73.5290  73.6248  73.6248  73.6936  73.6936
    74.0740  74.0740  74.2539  74.2539  74.6252  74.6252  74.9341  74.9341
    75.2693  75.2693  76.1380  76.1380  76.3354  76.3354  76.4542  76.4542
    76.6129  76.6129  76.6244  76.6245  76.8056  76.8056  76.9965  76.9965
    77.4825  77.4825  77.6033  77.6033  77.6428  77.6428  77.9279  77.9279
    78.3332  78.3332  78.6653  78.6653  78.9540  78.9540  79.0868  79.0868
    79.4372  79.4372  79.6096  79.6096  80.0003  80.0003  80.3454  80.3454
    80.4794  80.4794  81.0524  81.0524  81.1388  81.1388  81.2704  81.2704
    81.2975  81.2975  81.5331  81.5331  81.6902  81.6903  81.8474  81.8474
    82.1130  82.1130  82.1960  82.1960  82.5149  82.5149  83.0272  83.0272
    83.0595  83.0595  83.1890  83.1890  83.2370  83.2370  83.8341  83.8341
    84.4187  84.4188  84.5962  84.5977

          k =-1.0660-0.6155 0.1469 (  6649 PWs)   bands (ev):

   -37.0281 -37.0281 -37.0202 -37.0202 -37.0136 -37.0136 -37.0016 -37.0016
   -36.7868 -36.7868 -36.7299 -36.7299 -36.1355 -36.1355 -36.1322 -36.1322
   -36.1278 -36.1278 -36.1200 -36.1200 -36.1142 -36.1142 -36.1050 -36.1050
   -35.8976 -35.8976 -35.8720 -35.8720 -35.8231 -35.8231 -13.1979 -13.1979
   -13.1975 -13.1975 -13.1757 -13.1756 -13.1747 -13.1747 -10.2531 -10.2531
   -10.2487 -10.2487 -10.2152 -10.2152 -10.2113 -10.2113 -10.1840 -10.1840
   -10.1794 -10.1794  -2.1087  -2.1087  -1.7663  -1.7663  -1.3577  -1.3577
     0.6325   0.6325   1.2503   1.2503   5.2459   5.2459   6.9672   6.9672
     7.1839   7.1839   7.8903   7.8904   8.0646   8.0646   8.3639   8.3639
     8.8639   8.8639  10.0916  10.0916  10.9934  10.9934  12.0422  12.0422
    13.4453  13.4453  14.0621  14.0622  14.5837  14.5837  15.2590  15.2590
    15.4667  15.4667  16.2512  16.2512  17.7396  17.7396  20.2774  20.2774
    21.2579  21.2579  21.6576  21.6577  21.7963  21.7963  21.8768  21.8768
    22.3860  22.3860  22.7933  22.7933  23.3556  23.3556  23.7156  23.7156
    24.3160  24.3160  24.4728  24.4728  25.0821  25.0821  25.5407  25.5407
    26.2413  26.2413  26.4763  26.4763  27.1551  27.1551  27.3469  27.3469
    27.7037  27.7037  28.0742  28.0742  28.4170  28.4170  28.8628  28.8628
    29.3397  29.3397  29.5239  29.5239  29.9853  29.9853  30.1758  30.1758
    30.5389  30.5389  30.9371  30.9371  30.9875  30.9875  31.4563  31.4563
    31.8169  31.8169  32.6402  32.6402  32.8080  32.8080  33.1968  33.1968
    33.6457  33.6457  33.6988  33.6988  34.1344  34.1344  34.5736  34.5736
    34.7897  34.7897  35.3123  35.3123  36.1659  36.1659  36.1926  36.1926
    36.3523  36.3523  37.0859  37.0859  37.7570  37.7570  38.3330  38.3330
    38.4931  38.4931  38.7061  38.7061  39.5222  39.5222  39.6405  39.6405
    40.0644  40.0644  40.5153  40.5153  40.6909  40.6909  41.0255  41.0255
    41.3535  41.3535  42.0932  42.0932  42.1286  42.1286  42.5491  42.5491
    42.9123  42.9123  43.7172  43.7172  43.7895  43.7895  44.1090  44.1090
    44.3109  44.3109  44.6265  44.6265  44.7559  44.7559  44.8870  44.8870
    45.2813  45.2813  45.4989  45.4989  45.7299  45.7299  46.1572  46.1572
    46.5352  46.5352  46.7573  46.7573  46.8980  46.8980  47.1695  47.1695
    47.5705  47.5705  47.7458  47.7458  48.4291  48.4291  48.9482  48.9482
    48.9827  48.9827  49.8672  49.8672  49.9119  49.9119  50.3208  50.3208
    50.4178  50.4178  50.6362  50.6362  50.7538  50.7538  52.1343  52.1343
    52.5336  52.5336  52.6726  52.6726  52.8092  52.8092  53.1332  53.1332
    53.3785  53.3785  53.5436  53.5436  53.6609  53.6609  54.5234  54.5234
    54.6289  54.6289  55.1720  55.1720  56.2694  56.2694  56.3988  56.3988
    56.7337  56.7337  57.3545  57.3546  57.4259  57.4259  57.6173  57.6173
    58.4233  58.4233  58.8442  58.8442  59.0546  59.0546  59.3049  59.3049
    59.3269  59.3269  59.3438  59.3438  59.7554  59.7554  59.8753  59.8753
    59.9695  59.9695  60.2686  60.2686  60.8600  60.8600  61.0664  61.0664
    61.8115  61.8115  61.9252  61.9252  62.2433  62.2433  62.5567  62.5567
    63.0148  63.0148  63.1057  63.1057  63.1472  63.1472  63.7788  63.7788
    64.1286  64.1286  64.3533  64.3533  64.7204  64.7204  64.8648  64.8648
    65.0590  65.0590  65.3442  65.3442  65.5872  65.5872  65.8552  65.8552
    66.0003  66.0003  66.2015  66.2015  66.5044  66.5044  66.6488  66.6488
    66.7244  66.7244  67.3482  67.3482  67.4003  67.4003  67.7807  67.7807
    68.3142  68.3142  68.3650  68.3650  68.8505  68.8505  69.0539  69.0539
    69.1332  69.1332  69.1784  69.1784  69.5116  69.5116  69.5738  69.5738
    69.6809  69.6809  69.7778  69.7778  70.3368  70.3368  70.3983  70.3983
    70.4792  70.4792  70.6188  70.6188  71.4578  71.4579  71.9536  71.9536
    72.1291  72.1291  72.4007  72.4007  72.5011  72.5011  73.0671  73.0671
    73.3267  73.3267  73.3809  73.3810  73.5705  73.5705  73.9024  73.9024
    73.9534  73.9534  74.1552  74.1552  74.7373  74.7373  75.1744  75.1744
    75.2916  75.2916  75.6777  75.6777  75.7093  75.7093  75.9782  75.9782
    76.2879  76.2879  76.4894  76.4894  76.6207  76.6207  76.6945  76.6945
    76.7930  76.7930  76.8102  76.8102  76.9602  76.9602  77.1696  77.1696
    77.6211  77.6211  77.8070  77.8070  77.9628  77.9628  78.1872  78.1872
    78.6004  78.6004  78.6790  78.6790  79.0944  79.0944  79.2351  79.2351
    79.4472  79.4472  80.2230  80.2230  80.4205  80.4205  80.4823  80.4823
    80.6255  80.6255  80.7879  80.7879  81.1335  81.1335  81.3845  81.3845
    81.5331  81.5331  81.7349  81.7349  82.1896  82.1896  82.3900  82.3900
    82.7188  82.7188  82.7634  82.7634  83.2381  83.2382  83.5964  83.5964
    83.8279  83.8279  83.9981  83.9982

          k =-0.3553 0.2052 0.0979 (  6631 PWs)   bands (ev):

   -37.0263 -37.0263 -37.0188 -37.0188 -37.0025 -37.0025 -36.9989 -36.9989
   -36.7878 -36.7878 -36.7205 -36.7205 -36.1329 -36.1329 -36.1285 -36.1285
   -36.1254 -36.1254 -36.1190 -36.1190 -36.1035 -36.1035 -36.1000 -36.0999
   -35.8977 -35.8977 -35.8712 -35.8712 -35.8105 -35.8105 -13.2042 -13.2042
   -13.2037 -13.2037 -13.1755 -13.1754 -13.1731 -13.1731 -10.2482 -10.2482
   -10.2452 -10.2452 -10.2089 -10.2089 -10.2085 -10.2085 -10.1990 -10.1990
   -10.1953 -10.1952  -3.6322  -3.6322  -2.8493  -2.8493  -1.9420  -1.9420
     1.6360   1.6360   2.5069   2.5069   7.7021   7.7021   7.8720   7.8720
     8.4757   8.4757   8.9659   8.9659   9.3703   9.3703   9.8022   9.8022
    10.0395  10.0395  10.7953  10.7953  10.9044  10.9044  12.5765  12.5765
    12.6530  12.6530  13.8901  13.8901  14.2309  14.2310  14.9435  14.9435
    15.3890  15.3891  16.8918  16.8918  17.4207  17.4207  18.6945  18.6945
    18.7955  18.7955  19.2564  19.2564  20.1205  20.1205  20.2691  20.2691
    20.4449  20.4449  21.1513  21.1513  21.4859  21.4859  21.8242  21.8242
    21.9348  21.9348  22.5179  22.5179  22.9734  22.9735  23.0948  23.0948
    23.9636  23.9636  24.5836  24.5836  25.0820  25.0820  25.9060  25.9060
    26.1648  26.1648  27.1895  27.1895  28.2541  28.2541  29.1185  29.1185
    29.4461  29.4461  29.8820  29.8820  30.0877  30.0877  30.4299  30.4299
    31.4236  31.4236  31.7493  31.7493  32.9316  32.9316  33.4893  33.4893
    33.8954  33.8954  34.0179  34.0179  34.7541  34.7541  35.0356  35.0356
    35.1417  35.1417  35.3795  35.3795  35.4287  35.4287  35.8475  35.8475
    36.3338  36.3338  36.7761  36.7761  37.8118  37.8118  37.9762  37.9762
    38.2954  38.2954  39.2115  39.2115  39.5215  39.5215  39.7932  39.7932
    40.1123  40.1123  40.8911  40.8911  41.0954  41.0954  41.2385  41.2385
    41.4085  41.4085  41.5011  41.5011  41.6010  41.6010  41.9120  41.9120
    42.8187  42.8187  43.4350  43.4350  44.0632  44.0632  44.1138  44.1139
    44.2124  44.2124  44.4988  44.4988  44.8913  44.8913  44.9506  44.9506
    45.5802  45.5803  45.7047  45.7047  46.0165  46.0165  46.1293  46.1293
    46.2068  46.2068  46.3535  46.3535  46.6173  46.6173  46.8854  46.8854
    47.2897  47.2897  47.4364  47.4364  47.6610  47.6610  47.8255  47.8255
    48.1606  48.1606  48.6780  48.6780  48.8209  48.8209  48.9844  48.9844
    49.1328  49.1328  49.4289  49.4289  49.7179  49.7179  50.3527  50.3527
    50.4897  50.4897  50.8599  50.8599  51.4230  51.4230  51.5725  51.5725
    51.8121  51.8121  51.9229  51.9230  52.1082  52.1082  52.2255  52.2255
    53.0884  53.0884  53.3089  53.3089  53.4844  53.4844  53.7553  53.7553
    54.2292  54.2292  54.5187  54.5187  54.6190  54.6190  54.9523  54.9523
    55.0674  55.0674  55.5906  55.5906  55.7290  55.7290  56.0451  56.0451
    56.8361  56.8361  56.9278  56.9278  57.2058  57.2058  57.7834  57.7834
    57.8879  57.8879  58.0343  58.0343  58.2212  58.2212  58.3686  58.3686
    58.4448  58.4448  58.6418  58.6418  59.0220  59.0220  59.1762  59.1762
    59.4799  59.4799  59.9754  59.9754  60.1364  60.1364  60.5941  60.5941
    60.6663  60.6663  61.0296  61.0296  61.1609  61.1609  61.3231  61.3231
    61.7875  61.7875  61.9387  61.9387  62.1161  62.1161  62.6690  62.6690
    62.8648  62.8648  63.1522  63.1522  63.2211  63.2211  63.3440  63.3440
    63.5087  63.5087  63.8481  63.8481  64.2759  64.2759  64.5171  64.5171
    64.8021  64.8021  65.0871  65.0871  65.2160  65.2160  65.6021  65.6021
    65.8759  65.8759  66.3290  66.3290  66.6414  66.6414  66.9104  66.9104
    67.1518  67.1518  67.8417  67.8417  68.5475  68.5475  68.9277  68.9277
    69.0786  69.0786  69.8993  69.8993  70.0929  70.0929  70.2711  70.2711
    70.4708  70.4708  70.5678  70.5678  71.0852  71.0852  71.3560  71.3560
    71.6365  71.6365  71.8921  71.8921  71.9819  71.9819  72.3027  72.3027
    73.0939  73.0939  73.3152  73.3152  73.4354  73.4354  74.1647  74.1647
    74.4546  74.4546  74.5660  74.5660  75.0497  75.0497  75.9563  75.9563
    76.0982  76.0982  76.5079  76.5079  76.6291  76.6291  76.6711  76.6711
    76.7465  76.7465  77.1308  77.1308  77.4449  77.4449  77.5795  77.5795
    78.1107  78.1107  78.2683  78.2683  78.4099  78.4099  78.5838  78.5838
    79.1004  79.1004  79.1867  79.1867  79.4170  79.4170  79.7197  79.7197
    80.4039  80.4039  80.6341  80.6341  80.8530  80.8530  81.1102  81.1102
    81.1622  81.1622  81.7540  81.7540  81.8812  81.8812  82.0355  82.0355
    82.3904  82.3904  82.4381  82.4381  82.4945  82.4945  82.7923  82.7923
    83.3752  83.3752  83.6975  83.6975  83.8808  83.8808  84.4178  84.4178
    84.6645  84.6645  84.9658  84.9658  85.1481  85.1481  85.2889  85.2889
    85.6753  85.6753  86.2891  86.2902

          k =-0.7107 0.0000 0.1469 (  6647 PWs)   bands (ev):

   -37.0293 -37.0293 -37.0205 -37.0205 -37.0079 -37.0079 -37.0045 -37.0045
   -36.7900 -36.7900 -36.7259 -36.7259 -36.1374 -36.1374 -36.1309 -36.1309
   -36.1276 -36.1276 -36.1205 -36.1205 -36.1088 -36.1088 -36.1074 -36.1074
   -35.9005 -35.9005 -35.8735 -35.8735 -35.8172 -35.8172 -13.2022 -13.2022
   -13.2002 -13.2001 -13.1761 -13.1760 -13.1737 -13.1736 -10.2475 -10.2475
   -10.2413 -10.2412 -10.2135 -10.2134 -10.2122 -10.2122 -10.1946 -10.1946
   -10.1912 -10.1912  -3.1985  -3.1985  -2.5103  -2.5103  -1.6489  -1.6489
     1.4254   1.4254   2.1264   2.1264   6.7986   6.7986   7.2677   7.2678
     7.4810   7.4810   8.2044   8.2045   8.6822   8.6822   9.0170   9.0170
    10.1474  10.1474  10.8134  10.8134  10.9109  10.9109  12.5367  12.5367
    12.8928  12.8928  13.8601  13.8601  14.9656  14.9656  15.4707  15.4707
    15.9004  15.9004  16.6705  16.6705  16.7740  16.7740  18.9179  18.9179
    19.0349  19.0349  20.1665  20.1666  20.4210  20.4210  20.5916  20.5916
    20.9808  20.9808  21.3036  21.3036  21.7581  21.7581  22.7403  22.7403
    23.4800  23.4800  23.5724  23.5724  24.1520  24.1520  24.8385  24.8385
    25.0869  25.0869  25.3508  25.3508  26.0802  26.0802  26.3825  26.3825
    26.7718  26.7718  27.5714  27.5714  28.6789  28.6789  29.3127  29.3127
    29.5351  29.5351  29.8059  29.8059  30.0036  30.0036  30.6559  30.6559
    30.9243  30.9243  31.5044  31.5044  31.7979  31.7979  32.0123  32.0123
    32.9512  32.9512  33.4578  33.4578  34.0378  34.0378  34.1498  34.1498
    34.4134  34.4134  34.9945  34.9945  35.0811  35.0811  35.2731  35.2731
    35.6771  35.6771  35.9517  35.9517  36.5822  36.5822  37.0549  37.0549
    37.3135  37.3135  37.6130  37.6130  38.3277  38.3277  38.8136  38.8136
    39.4106  39.4106  39.8609  39.8609  40.1075  40.1075  40.6993  40.6993
    41.2930  41.2930  41.4580  41.4580  42.0560  42.0560  42.4917  42.4917
    42.7258  42.7258  43.0218  43.0218  43.2235  43.2235  43.3806  43.3806
    43.9391  43.9391  44.2684  44.2684  44.4194  44.4194  44.5229  44.5229
    44.6408  44.6408  45.2699  45.2699  45.5172  45.5172  45.8299  45.8299
    46.0459  46.0459  46.1297  46.1297  46.1980  46.1980  46.3959  46.3959
    46.9009  46.9009  47.1147  47.1147  47.3435  47.3435  47.5847  47.5847
    48.0784  48.0784  48.4649  48.4649  48.6041  48.6041  49.3941  49.3941
    49.4874  49.4874  49.7423  49.7423  50.3988  50.3988  50.7048  50.7048
    51.1795  51.1795  51.5176  51.5176  51.8107  51.8107  51.9266  51.9266
    52.1296  52.1296  52.2701  52.2701  52.7285  52.7285  52.8966  52.8966
    53.2439  53.2439  53.6464  53.6464  53.8349  53.8349  54.1409  54.1409
    54.2840  54.2840  54.4155  54.4155  54.5453  54.5453  54.8409  54.8409
    55.0775  55.0775  55.5787  55.5787  55.8647  55.8647  56.1709  56.1709
    56.2491  56.2491  56.7991  56.7991  56.9482  56.9482  57.4131  57.4131
    57.6514  57.6514  58.1402  58.1402  58.5334  58.5334  58.7565  58.7565
    58.9482  58.9482  59.2727  59.2727  59.6493  59.6493  59.9881  59.9881
    60.1237  60.1237  60.6980  60.6980  61.1363  61.1363  61.2004  61.2004
    61.2841  61.2841  61.7411  61.7411  62.2006  62.2006  62.2711  62.2711
    62.3901  62.3901  62.6218  62.6218  63.1140  63.1140  63.3531  63.3531
    63.7702  63.7702  64.0903  64.0903  64.3108  64.3108  64.4645  64.4646
    64.6076  64.6076  64.9412  64.9412  65.2722  65.2722  65.3844  65.3844
    65.8273  65.8273  66.0165  66.0165  66.2881  66.2881  66.7676  66.7676
    66.9878  66.9878  67.3250  67.3250  67.8625  67.8625  68.0521  68.0521
    68.7018  68.7018  68.9066  68.9066  69.3489  69.3489  69.6384  69.6384
    69.9898  69.9898  70.1113  70.1113  70.3063  70.3063  70.4971  70.4971
    70.9951  70.9951  71.2139  71.2139  71.6798  71.6798  71.8246  71.8246
    72.1103  72.1103  72.6017  72.6017  72.8829  72.8829  73.3940  73.3940
    73.5598  73.5598  73.6978  73.6978  74.0668  74.0668  74.3039  74.3039
    74.5430  74.5430  74.7073  74.7073  75.0103  75.0103  75.4521  75.4521
    75.5970  75.5970  75.8146  75.8146  76.1165  76.1165  76.5345  76.5345
    76.6199  76.6199  76.6313  76.6314  76.7503  76.7503  77.0548  77.0548
    77.3695  77.3695  77.4941  77.4941  77.9054  77.9054  78.2503  78.2503
    78.4626  78.4626  78.7707  78.7707  78.9086  78.9086  79.2180  79.2180
    79.4758  79.4758  79.6729  79.6729  79.9093  79.9093  80.2378  80.2378
    80.4172  80.4172  80.7634  80.7634  80.8707  80.8707  81.2660  81.2660
    81.5711  81.5711  81.7198  81.7198  81.9177  81.9177  82.2135  82.2135
    82.3016  82.3016  82.4987  82.4987  82.7573  82.7573  83.0659  83.0659
    83.6984  83.6984  84.0090  84.0090  84.2005  84.2005  84.4765  84.4765
    84.6213  84.6213  84.7604  84.7606

          k =-1.0660-0.2052 0.1958 (  6651 PWs)   bands (ev):

   -37.0282 -37.0282 -37.0209 -37.0209 -37.0111 -37.0111 -37.0061 -37.0061
   -36.7891 -36.7891 -36.7288 -36.7288 -36.1363 -36.1363 -36.1310 -36.1310
   -36.1283 -36.1282 -36.1229 -36.1229 -36.1121 -36.1120 -36.1080 -36.1080
   -35.8992 -35.8992 -35.8747 -35.8747 -35.8204 -35.8204 -13.1999 -13.1999
   -13.1958 -13.1957 -13.1766 -13.1765 -13.1744 -13.1744 -10.2495 -10.2495
   -10.2419 -10.2419 -10.2166 -10.2165 -10.2132 -10.2132 -10.1878 -10.1878
   -10.1848 -10.1848  -2.4114  -2.4113  -1.9471  -1.9471  -1.2968  -1.2968
     0.8888   0.8888   1.4070   1.4070   5.8624   5.8624   6.5566   6.5566
     6.9478   6.9478   7.3191   7.3191   8.3157   8.3157   8.9386   8.9386
     9.6018   9.6018   9.8394   9.8394  10.3600  10.3600  12.8563  12.8563
    13.6129  13.6129  14.0752  14.0752  14.9133  14.9133  15.3781  15.3781
    16.1832  16.1832  16.5116  16.5116  17.5686  17.5686  18.1889  18.1889
    20.3125  20.3125  20.7252  20.7252  21.1945  21.1945  21.9326  21.9326
    22.4429  22.4430  22.8467  22.8467  23.2567  23.2567  23.8625  23.8625
    23.9860  23.9860  24.2542  24.2542  24.8663  24.8663  25.2594  25.2594
    25.4924  25.4924  26.7251  26.7251  27.2953  27.2953  27.8116  27.8116
    27.9034  27.9034  28.1558  28.1558  28.3775  28.3775  28.8141  28.8141
    28.9040  28.9040  29.6655  29.6655  30.1590  30.1590  30.3235  30.3235
    30.8900  30.8900  31.2289  31.2289  31.6115  31.6115  31.8500  31.8500
    32.1877  32.1877  32.4412  32.4412  32.9540  32.9540  33.5398  33.5398
    33.8365  33.8365  34.4387  34.4387  34.6417  34.6417  35.2217  35.2217
    35.4963  35.4963  35.8189  35.8189  35.9877  35.9877  36.4562  36.4562
    36.6386  36.6386  37.0081  37.0081  37.1245  37.1245  37.7842  37.7842
    38.0017  38.0017  38.4312  38.4312  38.7586  38.7586  39.0490  39.0490
    39.6381  39.6381  40.4370  40.4370  40.9079  40.9079  41.2288  41.2288
    41.4522  41.4522  41.6525  41.6525  42.2093  42.2093  42.3857  42.3857
    42.5868  42.5868  43.1185  43.1185  43.7266  43.7266  43.8252  43.8252
    44.1551  44.1551  44.3400  44.3400  44.7034  44.7034  45.1928  45.1928
    45.4483  45.4483  45.8035  45.8035  46.1063  46.1063  46.6659  46.6659
    46.9441  46.9441  47.3916  47.3916  47.8377  47.8378  47.9425  47.9425
    48.2132  48.2132  48.3986  48.3986  48.5143  48.5143  49.0705  49.0705
    49.3900  49.3900  49.8120  49.8120  50.1908  50.1908  50.4797  50.4797
    50.8804  50.8804  51.0715  51.0715  51.2922  51.2922  52.3330  52.3330
    52.7092  52.7092  52.8048  52.8048  53.0266  53.0266  53.6657  53.6657
    53.8977  53.8977  54.4184  54.4184  54.4643  54.4643  54.9578  54.9578
    55.2984  55.2984  55.5605  55.5605  55.6385  55.6385  55.9651  55.9651
    56.2868  56.2868  56.5108  56.5108  56.8772  56.8772  57.2778  57.2778
    57.6603  57.6603  58.0030  58.0030  58.1397  58.1397  58.1955  58.1955
    58.4858  58.4858  58.6535  58.6535  59.0561  59.0561  59.3905  59.3905
    59.7506  59.7506  59.9365  59.9365  60.4298  60.4299  60.6539  60.6539
    61.0964  61.0964  61.3433  61.3433  61.5720  61.5720  61.6544  61.6544
    62.4816  62.4816  62.6582  62.6582  62.7921  62.7921  63.2097  63.2097
    63.4314  63.4314  63.7908  63.7908  64.0338  64.0338  64.3551  64.3551
    64.4999  64.4999  64.6351  64.6351  65.1083  65.1083  65.2996  65.2996
    65.6158  65.6158  65.8469  65.8469  66.0996  66.0996  66.3873  66.3873
    67.1521  67.1522  67.3424  67.3424  67.4374  67.4374  67.6978  67.6978
    67.9334  67.9334  68.2997  68.2997  68.5190  68.5190  68.9086  68.9086
    69.0224  69.0224  69.3525  69.3525  69.6227  69.6227  69.8120  69.8120
    70.1746  70.1746  70.5798  70.5798  71.0382  71.0382  71.0992  71.0992
    71.2988  71.2988  71.4940  71.4940  71.7418  71.7418  71.9696  71.9696
    72.2904  72.2904  72.6013  72.6013  72.7411  72.7411  72.8256  72.8256
    73.5567  73.5567  73.7836  73.7836  74.1517  74.1517  74.2792  74.2792
    74.5883  74.5883  74.8096  74.8096  74.9938  74.9938  75.1482  75.1482
    75.4796  75.4796  75.5582  75.5582  75.9836  75.9836  76.1314  76.1314
    76.2808  76.2808  76.4930  76.4930  76.6089  76.6089  76.6328  76.6328
    76.8043  76.8043  77.0311  77.0311  77.2182  77.2182  77.4996  77.4996
    77.6455  77.6455  77.9332  77.9332  78.2191  78.2191  78.3493  78.3493
    78.6425  78.6425  78.8222  78.8222  79.0840  79.0840  79.4600  79.4600
    79.6022  79.6022  79.8893  79.8893  80.3427  80.3427  80.5412  80.5412
    80.7843  80.7843  81.0463  81.0463  81.1486  81.1486  81.4225  81.4225
    81.6455  81.6455  81.7598  81.7598  81.8762  81.8762  81.9787  81.9787
    82.6842  82.6842  82.8052  82.8052  83.0698  83.0698  83.2943  83.2943
    83.3888  83.3888  83.8444  83.8445

          k = 1.0660 1.0258-0.0979 (  6648 PWs)   bands (ev):

   -37.0269 -37.0268 -37.0232 -37.0232 -37.0090 -37.0090 -37.0073 -37.0073
   -36.7889 -36.7889 -36.7292 -36.7292 -36.1358 -36.1357 -36.1330 -36.1329
   -36.1281 -36.1281 -36.1216 -36.1216 -36.1115 -36.1115 -36.1085 -36.1085
   -35.9001 -35.9001 -35.8726 -35.8726 -35.8218 -35.8218 -13.1989 -13.1989
   -13.1940 -13.1939 -13.1768 -13.1767 -13.1747 -13.1746 -10.2507 -10.2506
   -10.2443 -10.2443 -10.2176 -10.2175 -10.2127 -10.2126 -10.1847 -10.1847
   -10.1809 -10.1808  -1.7150  -1.7150  -1.5258  -1.5258  -1.4203  -1.4203
     0.5546   0.5546   0.9017   0.9017   5.2441   5.2442   6.5742   6.5742
     6.7570   6.7570   7.3549   7.3549   8.4226   8.4226   8.6756   8.6756
     8.8286   8.8286   9.3963   9.3963  10.1481  10.1481  13.1588  13.1588
    13.8207  13.8207  14.4416  14.4416  14.8438  14.8439  15.2031  15.2031
    15.8715  15.8715  16.3770  16.3770  17.2627  17.2627  20.0520  20.0521
    21.0970  21.0970  21.4163  21.4163  21.6860  21.6860  22.4900  22.4900
    22.6181  22.6181  22.8453  22.8453  23.1029  23.1029  23.3973  23.3973
    24.6308  24.6308  24.7816  24.7816  25.2685  25.2685  25.8074  25.8074
    25.9761  25.9761  26.3191  26.3191  27.3716  27.3717  27.7222  27.7222
    28.0966  28.0966  28.3004  28.3004  28.5613  28.5613  28.8885  28.8886
    29.3527  29.3527  30.3637  30.3637  30.4671  30.4671  30.8494  30.8494
    31.0200  31.0200  31.4381  31.4381  31.8415  31.8415  31.9408  31.9408
    32.2106  32.2106  32.5146  32.5146  32.8412  32.8412  32.9704  32.9704
    33.1882  33.1882  33.6580  33.6580  34.1124  34.1124  34.5823  34.5823
    35.1270  35.1270  35.5531  35.5531  35.9283  35.9283  36.1904  36.1905
    36.3344  36.3345  36.6828  36.6828  36.9491  36.9491  37.1597  37.1597
    37.3461  37.3461  37.7749  37.7749  38.4467  38.4467  38.6880  38.6880
    39.1748  39.1748  39.6402  39.6402  40.0544  40.0544  40.3697  40.3697
    40.5863  40.5863  40.9330  40.9330  41.8337  41.8337  42.2030  42.2030
    42.5713  42.5713  42.8953  42.8953  43.2493  43.2493  43.4028  43.4028
    43.6152  43.6152  44.0795  44.0795  44.6885  44.6885  45.0505  45.0505
    45.2273  45.2273  45.4382  45.4382  45.7625  45.7625  46.1562  46.1562
    46.5889  46.5889  46.8881  46.8881  47.2820  47.2820  47.7671  47.7671
    48.0394  48.0394  48.3085  48.3085  48.7993  48.7993  49.4060  49.4060
    49.7318  49.7318  49.9386  49.9386  50.2191  50.2191  50.9960  50.9960
    51.0705  51.0705  51.3467  51.3467  51.7733  51.7733  52.2725  52.2725
    52.4556  52.4556  52.7368  52.7368  52.9778  52.9778  53.1422  53.1422
    53.4070  53.4070  53.9110  53.9110  54.1649  54.1649  54.7708  54.7708
    55.5501  55.5501  55.8918  55.8918  56.4004  56.4004  56.5547  56.5547
    57.1718  57.1718  57.4673  57.4673  57.8482  57.8482  58.3590  58.3590
    58.5202  58.5202  58.8589  58.8589  59.4824  59.4824  59.5537  59.5537
    59.7645  59.7645  59.9676  59.9676  60.2115  60.2115  60.3004  60.3004
    60.5890  60.5890  60.8694  60.8694  61.1615  61.1615  61.4452  61.4452
    61.7949  61.7949  62.0016  62.0016  62.1626  62.1626  62.4329  62.4329
    62.6423  62.6423  62.8707  62.8707  63.2614  63.2614  63.5453  63.5453
    63.7383  63.7383  63.9299  63.9299  64.4490  64.4490  64.7544  64.7544
    64.9680  64.9680  65.0861  65.0861  65.4840  65.4840  65.6172  65.6172
    65.8829  65.8829  65.9923  65.9923  66.2110  66.2110  66.4103  66.4103
    66.5545  66.5545  66.7003  66.7003  67.1680  67.1680  67.5104  67.5104
    67.6928  67.6928  67.7327  67.7327  67.8500  67.8500  68.1259  68.1259
    68.4888  68.4888  68.8433  68.8433  69.2267  69.2267  69.5812  69.5812
    70.0333  70.0333  70.3582  70.3582  70.5951  70.5951  70.7281  70.7281
    71.2912  71.2912  71.3902  71.3902  71.6493  71.6493  71.7918  71.7918
    72.2713  72.2713  72.5029  72.5029  72.8233  72.8233  73.0499  73.0499
    73.3459  73.3459  73.6996  73.6996  73.8682  73.8682  74.0288  74.0288
    74.4434  74.4434  74.7464  74.7464  74.8403  74.8403  75.2683  75.2683
    75.5246  75.5246  75.6107  75.6107  75.8181  75.8181  76.0956  76.0956
    76.3609  76.3609  76.4165  76.4165  76.5524  76.5524  76.6249  76.6249
    76.6283  76.6284  76.9911  76.9911  77.1798  77.1798  77.3711  77.3711
    77.6876  77.6876  78.1032  78.1032  78.4385  78.4385  78.6641  78.6641
    78.8140  78.8140  79.3394  79.3394  79.5063  79.5063  79.6674  79.6674
    79.8033  79.8033  80.0781  80.0781  80.4283  80.4283  80.6541  80.6541
    80.8117  80.8117  81.0582  81.0582  81.1956  81.1956  81.4956  81.4956
    81.7167  81.7168  81.9291  81.9291  82.2288  82.2288  82.4274  82.4274
    82.7771  82.7771  82.8303  82.8303  83.1865  83.1865  83.3985  83.3985
    83.5246  83.5246  83.8787  83.8818

          k = 0.7107 0.8206-0.0490 (  6663 PWs)   bands (ev):

   -37.0311 -37.0311 -37.0236 -37.0236 -37.0147 -37.0147 -37.0070 -37.0070
   -36.7924 -36.7924 -36.7307 -36.7307 -36.1393 -36.1393 -36.1354 -36.1354
   -36.1302 -36.1302 -36.1234 -36.1234 -36.1159 -36.1159 -36.1092 -36.1092
   -35.9028 -35.9028 -35.8769 -35.8769 -35.8223 -35.8223 -13.2000 -13.1999
   -13.1958 -13.1957 -13.1766 -13.1765 -13.1744 -13.1744 -10.2496 -10.2495
   -10.2419 -10.2418 -10.2165 -10.2165 -10.2133 -10.2132 -10.1879 -10.1879
   -10.1848 -10.1848  -2.4484  -2.4484  -1.8382  -1.8382  -1.3816  -1.3816
     0.9127   0.9127   1.3970   1.3970   5.7120   5.7120   6.7253   6.7253
     7.1271   7.1271   7.4928   7.4928   8.0319   8.0319   8.6415   8.6415
     9.3669   9.3669  10.1947  10.1947  10.4482  10.4482  12.9536  12.9536
    13.4455  13.4455  14.0998  14.0999  15.1576  15.1576  15.4743  15.4743
    15.9619  15.9619  16.2532  16.2532  18.0505  18.0505  18.2754  18.2754
    20.0599  20.0599  20.3857  20.3857  20.8076  20.8076  21.8129  21.8129
    22.3207  22.3207  23.0873  23.0874  23.2926  23.2926  23.8689  23.8689
    24.2779  24.2779  24.6146  24.6146  24.9219  24.9219  25.4974  25.4974
    25.7836  25.7836  26.8486  26.8487  27.5046  27.5046  27.7358  27.7358
    28.0042  28.0042  28.1695  28.1695  28.3113  28.3113  28.6000  28.6000
    28.8621  28.8621  29.0182  29.0182  29.7350  29.7350  30.1851  30.1851
    30.6225  30.6226  30.8091  30.8091  31.5475  31.5475  31.9095  31.9095
    32.2141  32.2141  32.4149  32.4149  33.3724  33.3724  33.4690  33.4690
    34.4739  34.4739  34.6623  34.6623  35.1149  35.1149  35.3483  35.3483
    35.5333  35.5333  35.7057  35.7057  35.8932  35.8932  36.1655  36.1655
    36.5714  36.5714  37.0608  37.0608  37.5011  37.5011  37.6219  37.6219
    38.2506  38.2506  38.4214  38.4214  38.8985  38.8985  39.2565  39.2565
    39.6173  39.6173  39.9041  39.9041  40.6340  40.6340  40.7637  40.7637
    41.2616  41.2616  41.8158  41.8159  41.9451  41.9451  42.4126  42.4126
    42.8097  42.8097  43.1177  43.1177  43.2973  43.2973  43.9389  43.9389
    44.0668  44.0668  44.3995  44.3995  45.0700  45.0701  45.1741  45.1741
    45.5981  45.5981  46.0409  46.0409  46.5171  46.5171  46.7809  46.7809
    46.9125  46.9125  47.0169  47.0169  47.3517  47.3517  48.0401  48.0401
    48.1382  48.1382  48.6217  48.6217  48.7295  48.7295  48.8836  48.8836
    49.4167  49.4167  49.8763  49.8763  50.0962  50.0962  50.4528  50.4528
    50.9759  50.9759  51.4459  51.4459  51.9281  51.9281  52.1297  52.1297
    52.3073  52.3073  52.6897  52.6897  52.9682  52.9682  53.5255  53.5255
    53.6969  53.6969  54.2189  54.2189  54.4696  54.4696  54.8698  54.8698
    55.1478  55.1478  55.3112  55.3112  55.8818  55.8818  55.9812  55.9812
    56.3912  56.3912  56.5506  56.5506  56.7037  56.7037  57.2164  57.2164
    57.5428  57.5428  57.8619  57.8619  58.0531  58.0531  58.3282  58.3282
    58.7628  58.7628  58.8533  58.8533  59.1117  59.1117  59.5219  59.5219
    59.7563  59.7563  60.1999  60.1999  60.5342  60.5342  60.7599  60.7599
    61.1235  61.1235  61.3556  61.3556  61.8024  61.8024  62.1458  62.1458
    62.4860  62.4860  62.7909  62.7909  62.8953  62.8953  63.1468  63.1468
    63.4660  63.4660  63.5892  63.5892  63.7675  63.7675  63.8500  63.8500
    64.2610  64.2610  64.5408  64.5408  64.8315  64.8315  65.3150  65.3150
    65.6451  65.6451  65.9972  65.9972  66.1164  66.1164  66.3330  66.3330
    67.0728  67.0728  67.1563  67.1563  67.4389  67.4389  67.5347  67.5347
    67.7664  67.7664  68.2222  68.2222  68.4546  68.4546  68.6147  68.6147
    69.1882  69.1882  69.5887  69.5887  69.7320  69.7320  69.9008  69.9008
    70.1271  70.1271  70.3626  70.3626  70.9416  70.9416  71.1075  71.1075
    71.3047  71.3047  71.8165  71.8165  71.9919  71.9919  72.2458  72.2458
    72.6351  72.6351  72.7928  72.7928  73.1811  73.1811  73.2804  73.2804
    73.3990  73.3990  73.5263  73.5263  73.6105  73.6105  74.1335  74.1335
    74.4192  74.4192  74.5906  74.5906  75.1118  75.1118  75.2526  75.2526
    75.5995  75.5995  75.7332  75.7332  75.8365  75.8365  76.0346  76.0346
    76.0934  76.0934  76.3703  76.3703  76.5800  76.5800  76.6166  76.6166
    76.6197  76.6197  77.0022  77.0022  77.2842  77.2842  77.5855  77.5855
    77.6583  77.6583  77.9789  77.9789  78.1832  78.1832  78.4207  78.4207
    78.8213  78.8213  78.9233  78.9233  79.1537  79.1537  79.3250  79.3250
    79.5825  79.5825  79.8078  79.8078  80.1167  80.1167  80.3285  80.3285
    80.5627  80.5627  80.8821  80.8821  81.0476  81.0476  81.4895  81.4895
    81.5802  81.5802  81.7513  81.7513  82.0342  82.0342  82.4126  82.4126
    82.5273  82.5273  82.9634  82.9634  83.0354  83.0354  83.2037  83.2037
    83.9142  83.9142  84.1888  84.1903

          k = 0.3553 0.6155 0.0000 (  6647 PWs)   bands (ev):

   -37.0289 -37.0289 -37.0213 -37.0213 -37.0077 -37.0077 -37.0043 -37.0043
   -36.7902 -36.7902 -36.7256 -36.7256 -36.1368 -36.1368 -36.1313 -36.1313
   -36.1281 -36.1281 -36.1208 -36.1208 -36.1084 -36.1084 -36.1070 -36.1070
   -35.9008 -35.9008 -35.8734 -35.8734 -35.8169 -35.8169 -13.2022 -13.2022
   -13.2002 -13.2001 -13.1761 -13.1760 -13.1737 -13.1736 -10.2475 -10.2475
   -10.2413 -10.2412 -10.2135 -10.2134 -10.2122 -10.2122 -10.1946 -10.1946
   -10.1912 -10.1912  -3.2218  -3.2218  -2.4299  -2.4299  -1.7259  -1.7259
     1.5109   1.5109   2.0610   2.0610   6.8805   6.8806   7.2160   7.2160
     7.4814   7.4814   8.0984   8.0984   8.7860   8.7861   8.8391   8.8391
    10.2883  10.2883  10.9408  10.9408  10.9888  10.9888  12.3905  12.3905
    12.8123  12.8123  13.7438  13.7438  15.0121  15.0121  15.5452  15.5452
    15.9691  15.9691  16.6285  16.6285  16.7089  16.7089  19.3707  19.3707
    19.4373  19.4373  19.8755  19.8755  20.1011  20.1011  20.3310  20.3310
    20.9160  20.9160  21.1291  21.1291  21.8297  21.8297  22.4704  22.4704
    23.6795  23.6795  23.8968  23.8968  24.4053  24.4053  24.7123  24.7123
    24.9534  24.9534  25.2058  25.2058  26.0835  26.0835  26.3964  26.3964
    27.4297  27.4297  27.4912  27.4912  28.4353  28.4353  28.5792  28.5792
    29.5904  29.5904  30.1755  30.1755  30.3852  30.3853  30.9123  30.9123
    31.0699  31.0699  31.4900  31.4900  31.9253  31.9253  32.0553  32.0553
    32.1087  32.1087  33.0517  33.0517  33.8683  33.8683  34.0134  34.0134
    34.8204  34.8204  34.9774  34.9774  35.0350  35.0350  35.3829  35.3829
    35.6504  35.6504  36.0176  36.0176  36.5148  36.5148  36.8818  36.8818
    37.5840  37.5840  37.7597  37.7597  38.2251  38.2251  38.7500  38.7500
    39.0921  39.0921  40.1085  40.1085  40.4546  40.4546  40.9079  40.9079
    41.1120  41.1120  41.7086  41.7086  41.9961  41.9961  42.4657  42.4657
    42.6929  42.6929  43.0556  43.0556  43.7220  43.7220  43.7800  43.7800
    44.1926  44.1926  44.3038  44.3038  44.3730  44.3730  44.5586  44.5586
    44.6529  44.6529  44.8308  44.8308  45.1825  45.1825  45.5375  45.5375
    45.6951  45.6951  46.1486  46.1486  46.2054  46.2055  46.3275  46.3275
    46.4345  46.4345  46.9800  46.9800  47.1200  47.1200  47.3484  47.3484
    47.8980  47.8980  48.6289  48.6289  49.1639  49.1639  49.2645  49.2645
    50.1736  50.1736  50.2727  50.2727  50.4441  50.4441  50.6610  50.6610
    50.9451  50.9451  51.4395  51.4395  51.6478  51.6478  51.8376  51.8376
    51.9611  51.9611  52.1351  52.1351  52.4950  52.4950  53.1241  53.1241
    53.3788  53.3788  53.5070  53.5070  53.6476  53.6476  53.8673  53.8673
    54.3384  54.3384  54.6748  54.6748  54.8074  54.8074  55.2099  55.2099
    55.2666  55.2666  55.7540  55.7540  55.8219  55.8219  56.0838  56.0838
    56.1821  56.1821  56.6855  56.6855  56.7360  56.7360  56.9433  56.9433
    57.5949  57.5949  58.2600  58.2600  58.3246  58.3246  58.7422  58.7422
    58.8269  58.8269  59.2402  59.2402  60.0270  60.0270  60.2999  60.2999
    60.7232  60.7232  60.9460  60.9460  61.1968  61.1968  61.2394  61.2394
    61.3916  61.3916  61.6752  61.6752  62.0367  62.0367  62.3397  62.3397
    62.6611  62.6611  63.0647  63.0647  63.2531  63.2531  63.5906  63.5906
    63.7623  63.7623  63.9913  63.9913  64.0475  64.0475  64.4003  64.4003
    64.7031  64.7031  64.7887  64.7887  64.8474  64.8474  65.2259  65.2260
    65.5011  65.5011  65.6237  65.6237  65.8963  65.8963  66.2676  66.2676
    66.5306  66.5306  66.9228  66.9228  67.8053  67.8053  68.3422  68.3422
    68.6155  68.6155  68.9876  68.9876  69.1970  69.1970  69.8115  69.8115
    70.2547  70.2547  70.3738  70.3738  70.5891  70.5891  70.7880  70.7880
    70.9941  70.9942  71.7160  71.7160  71.8161  71.8161  72.0506  72.0506
    72.4048  72.4048  72.6790  72.6790  72.8710  72.8710  73.1475  73.1475
    73.5079  73.5079  73.6513  73.6513  73.8111  73.8111  74.0603  74.0603
    74.2782  74.2782  74.9175  74.9175  75.0525  75.0525  75.1670  75.1670
    75.4133  75.4133  75.4813  75.4813  76.0925  76.0925  76.2244  76.2244
    76.6209  76.6209  76.6231  76.6232  76.8881  76.8881  77.0598  77.0598
    77.5065  77.5065  77.8620  77.8620  77.8937  77.8937  78.3429  78.3429
    78.4416  78.4416  78.9914  78.9914  79.2418  79.2418  79.3426  79.3426
    79.6003  79.6003  79.8947  79.8947  79.9708  79.9708  80.1376  80.1376
    80.4208  80.4208  80.7296  80.7296  81.0655  81.0655  81.4181  81.4181
    81.6030  81.6030  81.7123  81.7123  81.9041  81.9041  82.3018  82.3018
    82.6445  82.6445  82.7527  82.7527  83.1864  83.1864  83.2227  83.2227
    83.5990  83.5990  83.6514  83.6514  83.7295  83.7295  84.1291  84.1291
    84.3298  84.3299  84.4541  84.4541

          k =-0.7107 0.4103 0.1958 (  6643 PWs)   bands (ev):

   -37.0271 -37.0271 -37.0170 -37.0170 -37.0114 -37.0114 -37.0012 -37.0012
   -36.7872 -36.7872 -36.7260 -36.7260 -36.1360 -36.1360 -36.1299 -36.1299
   -36.1245 -36.1245 -36.1173 -36.1173 -36.1124 -36.1124 -36.1042 -36.1042
   -35.8983 -35.8983 -35.8707 -35.8707 -35.8183 -35.8183 -13.2006 -13.2006
   -13.2000 -13.2000 -13.1760 -13.1760 -13.1739 -13.1738 -10.2482 -10.2482
   -10.2433 -10.2433 -10.2146 -10.2146 -10.2125 -10.2125 -10.1915 -10.1915
   -10.1878 -10.1878  -2.9836  -2.9836  -2.3703  -2.3703  -1.5385  -1.5385
     1.3644   1.3644   1.8486   1.8486   6.0247   6.0247   7.2077   7.2077
     7.8348   7.8348   8.1950   8.1951   8.8260   8.8260   9.0342   9.0342
     9.7714   9.7714   9.9401   9.9401  10.1574  10.1574  12.9683  12.9683
    13.6551  13.6551  14.1755  14.1755  14.8083  14.8083  15.2037  15.2037
    15.6040  15.6040  15.8805  15.8805  17.9363  17.9363  18.8446  18.8446
    19.6958  19.6958  20.0923  20.0923  20.1560  20.1560  20.7372  20.7372
    21.4204  21.4204  21.7882  21.7882  22.3141  22.3141  23.0504  23.0504
    23.2784  23.2784  24.1212  24.1212  24.8581  24.8581  25.2051  25.2052
    25.8565  25.8565  26.2934  26.2934  27.0287  27.0287  27.2053  27.2053
    27.6687  27.6687  27.8972  27.8972  28.1556  28.1556  28.3804  28.3804
    29.2604  29.2604  29.3479  29.3479  29.5199  29.5199  29.8502  29.8502
    30.2555  30.2555  30.8560  30.8560  31.3166  31.3167  31.6223  31.6223
    31.7432  31.7432  32.2873  32.2873  33.6675  33.6675  33.7106  33.7106
    34.6443  34.6443  34.8750  34.8750  35.4429  35.4429  35.5805  35.5805
    36.3693  36.3693  36.4972  36.4972  37.5605  37.5605  37.8037  37.8037
    38.2366  38.2366  38.6638  38.6638  38.7955  38.7955  39.0873  39.0873
    39.2619  39.2619  39.3208  39.3208  39.5388  39.5388  39.8567  39.8567
    40.0819  40.0819  40.3731  40.3731  40.7186  40.7186  41.2521  41.2521
    41.4309  41.4309  41.6184  41.6184  42.3175  42.3175  42.4340  42.4340
    42.8912  42.8912  43.4932  43.4932  44.2380  44.2380  44.4645  44.4645
    44.8162  44.8162  45.0769  45.0769  45.5725  45.5725  45.8011  45.8011
    46.0146  46.0146  46.1150  46.1150  46.6998  46.6998  47.0419  47.0419
    47.2120  47.2120  47.7062  47.7062  48.3206  48.3206  48.6758  48.6758
    48.7042  48.7042  48.9084  48.9084  49.4122  49.4122  49.8564  49.8564
    49.9400  49.9400  50.0684  50.0684  50.2751  50.2751  50.5186  50.5186
    50.8328  50.8328  51.1546  51.1546  51.2617  51.2617  51.7464  51.7464
    51.8306  51.8306  51.9630  51.9630  52.3378  52.3378  52.4853  52.4853
    52.7220  52.7220  53.0498  53.0498  53.5323  53.5323  53.6555  53.6555
    54.3614  54.3614  54.4305  54.4305  54.6935  54.6935  54.8619  54.8619
    55.1725  55.1725  55.4982  55.4982  56.3124  56.3124  56.4773  56.4773
    57.0780  57.0780  57.3358  57.3358  57.6690  57.6690  57.7137  57.7137
    58.2115  58.2115  58.2812  58.2812  58.4817  58.4817  58.5731  58.5731
    59.1927  59.1927  59.2784  59.2784  59.3483  59.3483  59.5270  59.5270
    60.0288  60.0288  60.3935  60.3935  61.0433  61.0433  61.2521  61.2521
    61.8066  61.8066  62.3195  62.3195  62.5871  62.5871  63.3259  63.3259
    63.4918  63.4918  63.6411  63.6411  63.7055  63.7055  64.3106  64.3106
    64.3929  64.3929  64.5267  64.5267  65.2629  65.2629  65.3056  65.3056
    65.5659  65.5659  65.6844  65.6844  66.0249  66.0249  66.2283  66.2283
    66.5222  66.5222  66.5866  66.5866  66.8168  66.8168  67.1457  67.1457
    67.2438  67.2438  67.3410  67.3410  67.7872  67.7872  67.8273  67.8273
    68.1515  68.1515  68.6762  68.6762  68.9768  68.9768  69.4953  69.4953
    69.6086  69.6086  70.1565  70.1565  70.6351  70.6351  71.1069  71.1069
    71.9079  71.9079  72.0476  72.0476  72.2556  72.2556  72.4000  72.4000
    72.5643  72.5643  72.8659  72.8660  73.0371  73.0371  73.1686  73.1686
    73.3102  73.3102  73.8205  73.8205  73.8944  73.8944  74.1787  74.1787
    74.2167  74.2167  74.2644  74.2644  74.6052  74.6052  75.2733  75.2733
    75.5232  75.5232  75.8804  75.8804  76.0631  76.0632  76.3030  76.3030
    76.5489  76.5489  76.5648  76.5648  76.6225  76.6225  76.6685  76.6685
    77.0858  77.0858  77.2387  77.2387  77.3713  77.3713  77.5808  77.5808
    77.6118  77.6118  78.0453  78.0453  78.1432  78.1432  78.6496  78.6496
    78.7796  78.7796  78.8962  78.8962  79.1816  79.1816  79.9072  79.9072
    80.1136  80.1136  80.4838  80.4838  80.6050  80.6050  80.7843  80.7843
    80.9155  80.9155  81.2458  81.2458  81.4906  81.4906  81.6742  81.6742
    81.9427  81.9427  82.6142  82.6142  82.7781  82.7781  82.9164  82.9164
    83.3315  83.3315  83.6064  83.6064  84.0019  84.0019  84.2178  84.2178
    84.3792  84.3792  84.5307  84.5307

          k =-1.0660 0.2052 0.2448 (  6650 PWs)   bands (ev):

   -37.0304 -37.0304 -37.0196 -37.0196 -37.0114 -37.0114 -37.0036 -37.0036
   -36.7896 -36.7896 -36.7279 -36.7279 -36.1398 -36.1398 -36.1325 -36.1325
   -36.1262 -36.1262 -36.1177 -36.1177 -36.1132 -36.1132 -36.1070 -36.1070
   -35.9007 -35.9007 -35.8730 -35.8730 -35.8199 -35.8199 -13.1999 -13.1999
   -13.1958 -13.1957 -13.1766 -13.1765 -13.1744 -13.1744 -10.2495 -10.2495
   -10.2419 -10.2419 -10.2165 -10.2164 -10.2133 -10.2133 -10.1878 -10.1878
   -10.1848 -10.1848  -2.4053  -2.4052  -1.9442  -1.9442  -1.3221  -1.3221
     1.0036   1.0036   1.3106   1.3106   5.6411   5.6411   6.7716   6.7716
     7.1787   7.1787   7.6050   7.6051   8.0217   8.0217   8.4055   8.4056
     9.1346   9.1346  10.5164  10.5164  10.8830  10.8830  12.5872  12.5872
    13.0192  13.0192  14.2601  14.2601  15.0816  15.0816  15.7282  15.7282
    15.9263  15.9263  16.3383  16.3383  18.0448  18.0448  18.9457  18.9457
    19.2977  19.2977  19.5944  19.5944  21.1927  21.1927  22.2788  22.2788
    22.6741  22.6741  23.2174  23.2174  23.4015  23.4016  23.8411  23.8411
    24.2469  24.2469  24.6297  24.6297  24.8577  24.8577  25.7026  25.7026
    26.1111  26.1111  26.3702  26.3702  27.0098  27.0099  27.4083  27.4083
    27.5567  27.5567  27.7529  27.7529  28.3903  28.3903  28.8150  28.8150
    28.9983  28.9983  29.0878  29.0878  29.9637  29.9637  30.3469  30.3469
    30.7824  30.7824  30.9500  30.9500  31.3811  31.3811  31.9158  31.9158
    32.0160  32.0160  32.3221  32.3221  33.1953  33.1953  33.5396  33.5396
    34.4735  34.4735  34.9101  34.9101  35.1266  35.1266  35.3838  35.3838
    35.6819  35.6819  35.9506  35.9506  36.0108  36.0108  36.4005  36.4006
    37.0389  37.0389  37.3713  37.3713  37.6115  37.6115  38.0276  38.0276
    38.2043  38.2043  38.6201  38.6201  38.9413  38.9414  39.0683  39.0683
    39.4396  39.4396  39.7487  39.7487  39.9313  39.9313  40.6254  40.6254
    40.9352  40.9352  41.4437  41.4437  41.7542  41.7542  42.1433  42.1433
    42.3954  42.3954  42.9825  42.9825  43.4636  43.4636  43.6891  43.6891
    43.8036  43.8036  44.1808  44.1808  44.4266  44.4266  45.0771  45.0771
    45.6545  45.6545  46.1545  46.1545  46.4212  46.4212  46.9465  46.9465
    47.1846  47.1846  47.4397  47.4397  47.7862  47.7862  48.1309  48.1309
    48.6318  48.6318  48.9025  48.9025  49.0255  49.0255  49.3848  49.3848
    49.6116  49.6116  50.1600  50.1600  50.4362  50.4362  50.7416  50.7416
    51.2514  51.2514  51.6367  51.6367  51.7514  51.7514  52.2406  52.2406
    52.6059  52.6059  52.8827  52.8827  53.0330  53.0330  53.3503  53.3503
    53.4559  53.4559  53.8634  53.8634  54.2082  54.2082  54.7023  54.7023
    54.8206  54.8206  54.9781  54.9781  55.4024  55.4024  55.5857  55.5857
    56.3890  56.3890  56.6757  56.6757  57.0388  57.0388  57.3389  57.3389
    57.6117  57.6117  57.7222  57.7222  57.9819  57.9819  58.2246  58.2246
    58.3671  58.3671  58.7286  58.7286  59.2731  59.2731  59.4240  59.4240
    59.6007  59.6007  59.8583  59.8583  60.3302  60.3302  60.5244  60.5244
    60.7293  60.7293  61.0452  61.0452  61.3372  61.3372  61.6154  61.6154
    61.9447  61.9447  62.0911  62.0911  62.7715  62.7715  63.1018  63.1018
    63.4061  63.4061  63.8958  63.8958  64.0166  64.0166  64.5386  64.5386
    64.6047  64.6047  65.2677  65.2677  65.3531  65.3531  65.4768  65.4768
    65.9514  65.9514  66.2093  66.2093  66.6419  66.6419  66.7951  66.7951
    67.3798  67.3799  67.5279  67.5280  67.6596  67.6596  67.8320  67.8320
    68.1890  68.1890  68.5203  68.5203  68.7037  68.7038  68.9398  68.9398
    69.3210  69.3210  69.6314  69.6314  70.0196  70.0196  70.2128  70.2128
    70.3385  70.3385  70.6508  70.6508  71.0267  71.0267  71.2611  71.2611
    71.5129  71.5129  71.7244  71.7244  71.8447  71.8447  72.2674  72.2674
    72.3972  72.3972  72.5420  72.5420  72.6394  72.6394  72.8882  72.8882
    73.0271  73.0271  73.3719  73.3719  73.6204  73.6204  73.7337  73.7337
    73.9249  73.9249  74.0899  74.0899  74.5915  74.5915  74.8254  74.8254
    75.1342  75.1342  75.4642  75.4642  75.6719  75.6719  75.8956  75.8956
    76.1265  76.1265  76.1932  76.1932  76.5334  76.5334  76.5836  76.5836
    76.6229  76.6229  76.6601  76.6601  77.1272  77.1272  77.3516  77.3516
    77.5662  77.5662  77.6389  77.6389  77.8845  77.8845  78.1397  78.1397
    78.8419  78.8419  79.0074  79.0074  79.2685  79.2685  79.4728  79.4728
    79.7523  79.7523  80.0692  80.0692  80.4637  80.4637  80.6658  80.6658
    80.8177  80.8177  81.0521  81.0521  81.2697  81.2697  81.5120  81.5120
    82.0232  82.0232  82.2198  82.2198  82.3487  82.3487  82.5979  82.5979
    82.7768  82.7768  82.9009  82.9009  83.0318  83.0318  83.2463  83.2463
    83.4142  83.4142  83.7684  83.7684

          k = 1.0660 1.4361-0.0490 (  6669 PWs)   bands (ev):

   -37.0291 -37.0291 -37.0270 -37.0270 -37.0154 -37.0154 -37.0137 -37.0137
   -36.7928 -36.7928 -36.7346 -36.7346 -36.1384 -36.1383 -36.1362 -36.1361
   -36.1301 -36.1301 -36.1263 -36.1262 -36.1192 -36.1191 -36.1168 -36.1168
   -35.9043 -35.9043 -35.8762 -35.8762 -35.8281 -35.8281 -13.1991 -13.1990
   -13.1918 -13.1917 -13.1779 -13.1779 -13.1748 -13.1747 -10.2442 -10.2442
   -10.2377 -10.2376 -10.2227 -10.2227 -10.2158 -10.2158 -10.1859 -10.1859
   -10.1847 -10.1847  -1.6587  -1.6587  -1.4806  -1.4806  -1.2102  -1.2102
     0.6030   0.6030   0.6451   0.6451   5.7066   5.7066   6.1242   6.1243
     6.5810   6.5810   7.0360   7.0360   7.4220   7.4220   8.2722   8.2722
     9.4591   9.4592  10.1237  10.1237  10.2970  10.2970  12.6786  12.6786
    13.5137  13.5137  14.1457  14.1457  15.5233  15.5233  15.9571  15.9572
    16.5822  16.5822  17.5775  17.5775  18.1747  18.1747  18.3253  18.3253
    20.0093  20.0093  20.3283  20.3283  20.8778  20.8778  21.8808  21.8808
    22.6765  22.6765  23.0720  23.0720  23.2183  23.2183  23.7284  23.7284
    24.0071  24.0071  24.9854  24.9854  25.4378  25.4378  26.2706  26.2707
    26.4423  26.4424  26.7805  26.7805  27.6448  27.6448  27.8782  27.8782
    28.1062  28.1062  28.3021  28.3021  29.1247  29.1247  29.9191  29.9191
    30.1897  30.1897  30.6774  30.6774  30.7589  30.7589  31.1464  31.1464
    31.6723  31.6723  31.8159  31.8160  31.8708  31.8708  32.0874  32.0874
    32.3828  32.3828  32.5937  32.5937  32.8436  32.8436  32.9462  32.9463
    33.2734  33.2734  33.7817  33.7817  34.0676  34.0676  34.7071  34.7071
    34.9924  34.9924  35.1587  35.1587  35.2325  35.2325  36.0926  36.0926
    36.2634  36.2634  36.4323  36.4323  36.9315  36.9315  36.9656  36.9656
    37.1019  37.1019  37.6284  37.6284  38.0991  38.0991  38.3907  38.3908
    38.6906  38.6906  38.8133  38.8133  39.3190  39.3190  39.6235  39.6235
    39.9058  39.9059  40.2493  40.2493  40.9690  40.9690  41.3786  41.3786
    41.6839  41.6839  42.0464  42.0464  42.9676  42.9676  43.1849  43.1849
    43.5185  43.5185  43.7435  43.7435  44.2411  44.2411  44.6561  44.6561
    44.7202  44.7202  45.2387  45.2387  45.6151  45.6151  45.9891  45.9891
    46.3468  46.3468  46.9803  46.9803  47.5039  47.5039  48.1358  48.1358
    48.3935  48.3935  49.1316  49.1316  49.3476  49.3476  49.6011  49.6011
    50.3633  50.3633  50.6981  50.6981  51.4383  51.4383  51.5812  51.5812
    52.0309  52.0309  52.2153  52.2153  52.5454  52.5454  52.7835  52.7835
    53.2281  53.2281  53.5342  53.5342  54.0268  54.0268  54.1723  54.1723
    54.6194  54.6194  54.9377  54.9377  55.1918  55.1918  55.3792  55.3792
    55.4836  55.4836  56.1044  56.1044  56.3789  56.3789  56.8772  56.8772
    57.1697  57.1697  57.3093  57.3093  57.5551  57.5551  57.8163  57.8163
    58.0852  58.0852  58.4044  58.4044  58.5335  58.5335  58.7412  58.7412
    59.1028  59.1028  59.6090  59.6090  59.6787  59.6787  59.9389  59.9389
    60.1946  60.1946  60.3499  60.3499  60.4502  60.4502  60.8070  60.8070
    61.0941  61.0941  61.5986  61.5986  61.7658  61.7658  62.3603  62.3603
    62.5369  62.5369  62.7420  62.7420  63.2426  63.2426  63.3440  63.3440
    63.5949  63.5949  63.8468  63.8468  64.0870  64.0870  64.2476  64.2476
    64.4263  64.4263  64.8626  64.8626  65.2939  65.2939  65.6712  65.6712
    65.7855  65.7855  66.0166  66.0166  66.2684  66.2684  66.6286  66.6286
    66.8303  66.8303  67.0792  67.0792  67.3599  67.3600  67.6234  67.6234
    67.8514  67.8514  67.9996  67.9996  68.3836  68.3836  68.4703  68.4703
    68.6384  68.6384  68.9469  68.9469  69.5354  69.5354  69.7599  69.7599
    70.3137  70.3137  70.3941  70.3941  70.7480  70.7480  71.0670  71.0670
    71.2280  71.2280  71.4598  71.4598  71.6523  71.6523  71.9832  71.9832
    72.3483  72.3483  72.5391  72.5391  72.8179  72.8179  73.1490  73.1490
    73.2725  73.2725  73.4499  73.4499  73.7806  73.7806  73.9802  73.9802
    74.2744  74.2744  74.5057  74.5057  74.7523  74.7523  74.9946  74.9946
    75.4094  75.4094  75.4625  75.4625  75.9394  75.9394  76.0772  76.0772
    76.2026  76.2027  76.3654  76.3654  76.6179  76.6179  76.6259  76.6259
    76.8834  76.8834  77.1940  77.1940  77.4102  77.4102  77.6716  77.6716
    77.9405  77.9406  78.2156  78.2156  78.4124  78.4124  78.5806  78.5806
    78.8130  78.8130  79.0010  79.0010  79.3282  79.3282  79.6585  79.6585
    79.8729  79.8729  80.2730  80.2730  80.6310  80.6310  80.9274  80.9274
    81.0823  81.0823  81.1940  81.1940  81.6070  81.6071  81.7090  81.7090
    81.9272  81.9272  82.1186  82.1186  82.3219  82.3219  82.5359  82.5359
    82.7616  82.7616  83.1172  83.1173  83.3525  83.3525  83.5320  83.5320
    83.6803  83.6803  83.9849  83.9851

          k = 0.7107 1.2310 0.0000 (  6659 PWs)   bands (ev):

   -37.0274 -37.0274 -37.0257 -37.0257 -37.0140 -37.0140 -37.0107 -37.0107
   -36.7912 -36.7912 -36.7326 -36.7326 -36.1362 -36.1362 -36.1356 -36.1356
   -36.1280 -36.1280 -36.1248 -36.1248 -36.1176 -36.1176 -36.1135 -36.1135
   -35.9026 -35.9026 -35.8745 -35.8745 -35.8260 -35.8260 -13.1991 -13.1990
   -13.1918 -13.1917 -13.1779 -13.1779 -13.1748 -13.1747 -10.2442 -10.2442
   -10.2377 -10.2376 -10.2226 -10.2226 -10.2158 -10.2158 -10.1860 -10.1860
   -10.1847 -10.1847  -1.7001  -1.7001  -1.4046  -1.4046  -1.2412  -1.2412
     0.6188   0.6188   0.6267   0.6267   5.5564   5.5564   5.9491   5.9491
     6.8658   6.8659   7.1626   7.1626   7.9394   7.9394   8.3419   8.3419
     8.7050   8.7050   9.5003   9.5003  10.7054  10.7054  12.8277  12.8277
    13.9015  13.9015  14.7384  14.7384  15.0449  15.0450  15.9248  15.9248
    16.1591  16.1591  17.6197  17.6197  18.0422  18.0422  18.7671  18.7671
    19.0294  19.0294  20.6458  20.6458  21.5339  21.5339  21.9834  21.9834
    22.2096  22.2096  22.7651  22.7651  23.0593  23.0593  24.0829  24.0829
    24.4894  24.4894  24.9306  24.9306  25.6945  25.6945  25.8981  25.8981
    26.4106  26.4106  27.0692  27.0692  27.7137  27.7137  27.9332  27.9332
    28.0398  28.0398  28.3335  28.3335  28.9625  28.9625  30.1171  30.1171
    30.1491  30.1491  30.2749  30.2749  30.4914  30.4914  31.2858  31.2858
    31.3316  31.3316  31.6305  31.6305  31.7613  31.7613  32.1092  32.1092
    32.3498  32.3498  32.5762  32.5762  33.0183  33.0183  33.1024  33.1024
    33.3377  33.3377  33.5400  33.5401  34.1954  34.1954  34.4203  34.4203
    35.4451  35.4451  35.5144  35.5144  35.7441  35.7441  35.9512  35.9512
    36.1742  36.1742  36.8739  36.8739  37.0322  37.0322  37.1504  37.1504
    37.5115  37.5115  37.5672  37.5672  37.6933  37.6933  37.8603  37.8603
    38.7297  38.7297  38.9042  38.9042  39.4335  39.4335  39.4800  39.4801
    39.6926  39.6926  40.3183  40.3183  40.5599  40.5599  40.9569  40.9569
    41.2673  41.2673  41.4956  41.4956  42.7281  42.7281  42.8833  42.8833
    43.5457  43.5457  43.8819  43.8819  44.2348  44.2348  45.5716  45.5716
    45.7500  45.7500  46.0133  46.0133  46.4488  46.4488  46.5480  46.5480
    46.6092  46.6092  47.3935  47.3935  47.7448  47.7448  47.9139  47.9139
    48.2131  48.2131  48.4681  48.4681  48.9195  48.9195  49.2291  49.2291
    49.2986  49.2986  49.6192  49.6192  50.8719  50.8719  51.1253  51.1253
    51.6789  51.6789  52.1720  52.1720  52.7225  52.7225  53.1056  53.1056
    53.3695  53.3695  53.6910  53.6910  54.1168  54.1168  54.1677  54.1677
    54.5371  54.5371  55.0352  55.0352  55.3140  55.3140  55.4717  55.4717
    55.5902  55.5902  56.2548  56.2548  56.4953  56.4953  56.7299  56.7299
    56.9912  56.9912  57.2172  57.2172  57.5125  57.5125  58.0013  58.0013
    58.3483  58.3483  58.6365  58.6365  58.7555  58.7555  59.5593  59.5593
    59.7003  59.7003  59.8352  59.8353  60.0772  60.0773  60.4182  60.4182
    60.5014  60.5014  60.6361  60.6361  60.7583  60.7583  60.8772  60.8772
    61.3445  61.3445  61.6919  61.6919  61.7383  61.7383  61.9725  61.9725
    62.3464  62.3464  62.4134  62.4134  62.6455  62.6455  63.1237  63.1237
    63.2915  63.2915  63.4855  63.4856  63.6264  63.6264  64.1034  64.1034
    64.3807  64.3807  64.5255  64.5255  65.0270  65.0270  65.2914  65.2914
    65.3924  65.3924  65.7260  65.7260  65.8254  65.8254  66.2693  66.2693
    66.4531  66.4531  66.9691  66.9691  67.6415  67.6415  67.6831  67.6831
    67.8175  67.8175  68.0643  68.0643  68.7837  68.7837  68.9111  68.9111
    69.1156  69.1156  69.3616  69.3616  69.5085  69.5085  69.9941  69.9941
    70.0455  70.0455  70.5093  70.5093  70.6453  70.6454  70.9454  70.9454
    71.4210  71.4210  71.4731  71.4731  71.6036  71.6036  71.8592  71.8592
    72.0349  72.0349  72.5193  72.5193  72.8553  72.8553  73.3342  73.3342
    73.5030  73.5030  73.6291  73.6291  73.8522  73.8522  74.1151  74.1151
    74.3047  74.3047  74.3757  74.3757  74.7937  74.7937  75.1110  75.1110
    75.2330  75.2330  75.6144  75.6144  75.9686  75.9686  76.1315  76.1315
    76.2427  76.2427  76.5628  76.5628  76.6061  76.6061  76.6749  76.6749
    76.7510  76.7510  76.8701  76.8701  77.1711  77.1712  77.5201  77.5201
    77.6645  77.6645  78.3293  78.3293  78.4495  78.4495  78.9315  78.9315
    79.3596  79.3597  79.5386  79.5386  79.7489  79.7489  80.0903  80.0903
    80.2211  80.2211  80.4504  80.4504  80.6816  80.6816  80.7927  80.7927
    81.2290  81.2290  81.5350  81.5350  81.6185  81.6185  81.7896  81.7896
    81.8741  81.8741  82.1285  82.1285  82.2721  82.2721  82.4947  82.4947
    82.6298  82.6298  82.8667  82.8667  83.2129  83.2129  83.5100  83.5100
    83.6963  83.6965  83.8060  83.8071

          k =-1.0660 0.6155 0.2937 (  6676 PWs)   bands (ev):

   -37.0311 -37.0311 -37.0279 -37.0279 -37.0144 -37.0143 -37.0118 -37.0118
   -36.7945 -36.7945 -36.7329 -36.7329 -36.1399 -36.1399 -36.1371 -36.1371
   -36.1311 -36.1311 -36.1281 -36.1281 -36.1164 -36.1164 -36.1137 -36.1136
   -35.9054 -35.9054 -35.8780 -35.8780 -35.8248 -35.8248 -13.1979 -13.1979
   -13.1975 -13.1975 -13.1757 -13.1757 -13.1748 -13.1748 -10.2529 -10.2529
   -10.2489 -10.2489 -10.2151 -10.2151 -10.2116 -10.2116 -10.1839 -10.1839
   -10.1795 -10.1795  -2.0979  -2.0979  -1.7478  -1.7478  -1.4033  -1.4033
     0.6274   0.6274   1.2921   1.2921   5.3998   5.3998   6.4724   6.4724
     6.9079   6.9079   7.7738   7.7738   8.4778   8.4778   9.0974   9.0974
     9.4791   9.4791   9.6152   9.6152  10.0414  10.0414  12.5345  12.5345
    13.4676  13.4676  14.0521  14.0521  14.3644  14.3644  15.2026  15.2026
    15.3729  15.3729  16.8749  16.8749  17.9289  17.9289  18.6546  18.6546
    20.8424  20.8425  21.7640  21.7640  22.0787  22.0787  22.3724  22.3724
    22.6525  22.6525  23.4705  23.4705  23.8212  23.8212  24.0422  24.0423
    24.3599  24.3599  24.7402  24.7402  25.4144  25.4144  25.6878  25.6878
    26.1329  26.1329  26.3381  26.3381  26.4961  26.4961  27.2460  27.2460
[...]
    36.9970  36.9970  37.2057  37.2057  37.5097  37.5097  37.8939  37.8939
    38.2915  38.2915  38.5519  38.5519  38.6858  38.6858  39.3008  39.3008
    39.5414  39.5414  39.8444  39.8444  40.3390  40.3390  40.8219  40.8219
    41.0894  41.0894  41.7487  41.7487  42.0411  42.0411  42.1180  42.1180
    42.6098  42.6098  42.7821  42.7821  43.4178  43.4178  43.7832  43.7832
    44.0482  44.0482  44.2876  44.2876  44.7141  44.7141  45.4074  45.4074
    45.5548  45.5548  45.7484  45.7484  46.5798  46.5798  46.6923  46.6923
    46.9275  46.9275  47.1644  47.1644  47.3635  47.3635  47.8963  47.8963
    48.2926  48.2926  48.3833  48.3833  48.7088  48.7088  49.2854  49.2854
    49.9494  49.9494  50.4560  50.4560  50.6702  50.6702  50.8177  50.8177
    51.3337  51.3337  51.7058  51.7058  52.0507  52.0507  52.3623  52.3623
    52.6032  52.6032  52.9674  52.9674  53.2962  53.2962  53.5454  53.5454
    53.8404  53.8404  54.0104  54.0104  54.2191  54.2191  54.3936  54.3936
    54.7902  54.7902  55.2367  55.2367  55.5575  55.5575  56.0436  56.0436
    56.1452  56.1452  56.4543  56.4543  56.7664  56.7664  56.8841  56.8841
    57.2128  57.2128  57.5194  57.5194  57.7770  57.7771  58.4434  58.4434
    58.5187  58.5187  58.7303  58.7303  59.1937  59.1937  59.5635  59.5635
    59.7042  59.7042  59.8684  59.8684  60.0359  60.0359  60.3658  60.3658
    60.5738  60.5738  60.9000  60.9000  61.4851  61.4851  61.6965  61.6965
    61.7669  61.7669  62.1251  62.1251  62.7768  62.7768  63.2054  63.2054
    63.3315  63.3315  63.7919  63.7919  64.0494  64.0494  64.5351  64.5351
    64.8205  64.8205  64.9124  64.9124  65.2305  65.2305  65.6642  65.6642
    66.0913  66.0913  66.5356  66.5356  66.8804  66.8804  67.0223  67.0223
    67.2775  67.2775  67.6726  67.6726  67.8039  67.8039  68.0349  68.0349
    68.1670  68.1670  68.4664  68.4664  68.5829  68.5829  69.4193  69.4193
    69.6134  69.6134  69.9267  69.9267  69.9852  69.9852  70.3335  70.3335
    70.5009  70.5009  70.7008  70.7008  70.8540  70.8541  71.0782  71.0782
    71.2895  71.2895  71.5607  71.5607  71.7557  71.7557  71.9986  71.9986
    72.2803  72.2803  72.3669  72.3669  72.5949  72.5949  73.0455  73.0455
    73.0865  73.0865  73.2948  73.2948  73.3968  73.3968  73.7406  73.7406
    74.0552  74.0552  74.1739  74.1739  74.3133  74.3133  74.4161  74.4161
    74.6851  74.6851  75.0062  75.0062  75.4331  75.4331  75.8058  75.8058
    75.9253  75.9253  75.9911  75.9911  76.3943  76.3943  76.6189  76.6189
    76.6238  76.6238  77.0298  77.0298  77.1501  77.1501  77.4329  77.4329
    78.0076  78.0076  78.1138  78.1138  78.4285  78.4285  78.5971  78.5971
    79.0039  79.0039  79.2276  79.2276  79.3382  79.3382  79.6527  79.6527
    79.9793  79.9793  80.3680  80.3680  80.5011  80.5011  80.6298  80.6298
    80.7876  80.7876  81.0466  81.0466  81.1943  81.1943  81.4782  81.4782
    81.5887  81.5887  81.6930  81.6930  81.9290  81.9290  82.2451  82.2451
    82.6846  82.6846  82.8457  82.8457  82.8965  82.8965  83.1604  83.1604
    83.6852  83.6852  83.8510  83.8512

          k = 1.7767-1.0258-0.1958 (  6653 PWs)   bands (ev):

   -37.0292 -37.0292 -37.0193 -37.0193 -37.0138 -37.0138 -37.0018 -37.0018
   -36.7891 -36.7891 -36.7280 -36.7280 -36.1378 -36.1378 -36.1332 -36.1332
   -36.1258 -36.1258 -36.1193 -36.1193 -36.1152 -36.1152 -36.1039 -36.1039
   -35.8998 -35.8998 -35.8734 -35.8734 -35.8198 -35.8198 -13.2006 -13.2006
   -13.2000 -13.2000 -13.1760 -13.1760 -13.1739 -13.1738 -10.2482 -10.2482
   -10.2434 -10.2433 -10.2147 -10.2147 -10.2125 -10.2125 -10.1915 -10.1915
   -10.1879 -10.1879  -2.8061  -2.8061  -2.6851  -2.6851  -1.3329  -1.3329
     1.1448   1.1448   1.9921   1.9921   6.0828   6.0828   7.1723   7.1723
     7.8101   7.8101   8.2607   8.2607   8.5687   8.5687   8.9637   8.9637
     9.6861   9.6861  10.0242  10.0242  10.9217  10.9217  12.3974  12.3975
    13.5695  13.5695  14.0140  14.0140  14.4756  14.4756  15.3799  15.3799
    15.9916  15.9916  16.1593  16.1593  17.5179  17.5179  18.9264  18.9264
    19.3526  19.3526  20.3356  20.3356  20.6284  20.6284  20.8209  20.8209
    21.4532  21.4532  21.6832  21.6832  22.8706  22.8706  23.1076  23.1076
    23.7414  23.7414  23.9839  23.9839  24.1874  24.1874  25.1589  25.1589
    25.4895  25.4896  26.0010  26.0010  26.5077  26.5077  26.8169  26.8169
    27.0940  27.0940  27.2606  27.2606  27.9093  27.9093  29.1525  29.1525
    29.4003  29.4003  29.7968  29.7968  30.1316  30.1316  30.1737  30.1737
    30.7259  30.7259  31.4361  31.4361  31.6746  31.6746  31.7940  31.7940
    32.1185  32.1185  32.1733  32.1733  33.4500  33.4500  33.7103  33.7103
    34.2748  34.2748  34.5096  34.5096  35.4467  35.4467  36.0987  36.0987
    36.2215  36.2215  36.5479  36.5479  36.6271  36.6271  37.1778  37.1778
    37.5038  37.5038  37.9656  37.9656  38.8452  38.8452  39.0999  39.0999
    39.3932  39.3932  39.6546  39.6546  39.7976  39.7976  39.9462  39.9462
    40.2359  40.2359  40.6285  40.6285  41.0313  41.0313  41.1885  41.1885
    41.6502  41.6502  41.8178  41.8178  42.0551  42.0551  42.1184  42.1184
    43.3316  43.3316  43.3954  43.3954  44.0176  44.0176  44.5185  44.5185
    45.0697  45.0697  45.1301  45.1301  45.8193  45.8193  45.9270  45.9270
    46.2454  46.2454  46.5551  46.5551  46.8328  46.8328  47.0384  47.0384
    47.2342  47.2342  47.4363  47.4363  47.7262  47.7262  48.2520  48.2520
    48.8446  48.8446  49.0431  49.0431  49.3775  49.3775  49.4908  49.4908
    49.7618  49.7618  50.1840  50.1840  50.4394  50.4394  50.6079  50.6079
    50.7991  50.7991  51.1110  51.1110  51.6408  51.6408  51.8634  51.8635
    52.1433  52.1433  52.2507  52.2507  52.6333  52.6333  52.7689  52.7689
    52.9028  52.9028  53.0873  53.0873  53.2081  53.2081  53.7185  53.7185
    53.8744  53.8744  54.1392  54.1392  54.4111  54.4111  54.6954  54.6954
    55.0801  55.0801  55.3293  55.3293  56.0246  56.0246  56.1639  56.1639
    56.3362  56.3362  56.8855  56.8855  57.3217  57.3217  57.5167  57.5167
    57.7374  57.7374  58.3951  58.3951  58.5210  58.5210  58.8985  58.8985
    59.4712  59.4712  59.4833  59.4833  60.4221  60.4221  60.5373  60.5373
    60.8607  60.8607  61.2132  61.2132  61.2651  61.2651  61.8406  61.8406
    62.3648  62.3648  62.4301  62.4301  62.6450  62.6450  62.7185  62.7185
    63.0214  63.0214  63.2292  63.2292  63.3767  63.3767  63.6314  63.6314
    64.0059  64.0059  64.2696  64.2696  64.5584  64.5584  64.7297  64.7297
    65.0280  65.0280  65.1063  65.1063  65.3706  65.3706  65.6919  65.6919
    65.9845  65.9845  66.1871  66.1871  66.5843  66.5843  67.0000  67.0000
    67.2771  67.2771  68.0840  68.0840  68.3859  68.3859  68.5494  68.5494
    68.9183  68.9183  69.3311  69.3311  69.5378  69.5378  70.0598  70.0598
    70.4723  70.4723  70.7987  70.7987  71.2499  71.2499  71.3548  71.3548
    71.7148  71.7148  71.7705  71.7705  72.1386  72.1386  72.3079  72.3079
    72.5738  72.5738  72.8723  72.8723  73.4117  73.4117  73.5065  73.5065
    73.7455  73.7455  73.8862  73.8862  74.0285  74.0285  74.1038  74.1038
    74.3349  74.3349  74.7139  74.7139  74.9456  74.9456  75.2669  75.2669
    75.4310  75.4310  75.7229  75.7229  75.8698  75.8698  75.9866  75.9866
    76.1829  76.1829  76.2682  76.2682  76.2982  76.2982  76.6097  76.6097
    76.6332  76.6332  76.6615  76.6615  77.3732  77.3732  77.5704  77.5704
    77.7995  77.7995  78.0135  78.0135  78.1117  78.1117  78.1668  78.1668
    78.3810  78.3810  78.5909  78.5909  79.0596  79.0596  79.4836  79.4836
    79.7085  79.7085  79.8541  79.8541  79.9318  79.9318  80.0328  80.0328
    80.5603  80.5603  81.0691  81.0691  81.3225  81.3225  81.6116  81.6116
    81.8883  81.8883  82.2716  82.2716  82.4016  82.4016  83.2861  83.2861
    83.4935  83.4935  83.6466  83.6466  84.0370  84.0370  84.1112  84.1112
    84.4268  84.4269  84.4911  84.4913

          k = 0.0000 0.0000 0.4406 (  6626 PWs)   bands (ev):

   -37.0244 -37.0244 -37.0167 -37.0167 -37.0003 -37.0003 -36.9994 -36.9994
   -36.7857 -36.7857 -36.7191 -36.7191 -36.1297 -36.1297 -36.1283 -36.1283
   -36.1225 -36.1225 -36.1199 -36.1199 -36.1008 -36.1008 -36.0992 -36.0992
   -35.8936 -35.8936 -35.8725 -35.8725 -35.8082 -35.8082 -13.2061 -13.2061
   -13.2055 -13.2055 -13.1748 -13.1748 -13.1729 -13.1729 -10.2509 -10.2509
   -10.2485 -10.2485 -10.2050 -10.2050 -10.2036 -10.2036 -10.2019 -10.2019
   -10.1978 -10.1978  -3.6563  -3.6563  -3.4480  -3.4480  -1.7337  -1.7337
     1.0632   1.0632   3.3217   3.3217   7.7226   7.7226   9.1301   9.1301
     9.2858   9.2858   9.6503   9.6503   9.8676   9.8676  10.0897  10.0897
    10.2243  10.2243  10.2787  10.2787  11.0811  11.0811  12.0576  12.0576
    12.7195  12.7195  13.3155  13.3155  14.1240  14.1240  14.5925  14.5925
    14.8554  14.8554  16.8381  16.8381  18.3527  18.3527  18.4363  18.4363
    18.5849  18.5849  19.1287  19.1287  19.9914  19.9914  20.4299  20.4299
    20.4378  20.4378  20.9639  20.9639  21.0120  21.0120  21.0734  21.0734
    21.5465  21.5465  21.7311  21.7311  21.9308  21.9308  22.4570  22.4570
    22.5642  22.5642  23.8738  23.8738  25.1252  25.1252  26.5752  26.5752
    26.6736  26.6736  26.7438  26.7438  27.7000  27.7000  27.8729  27.8729
    27.9333  27.9333  29.2076  29.2076  29.5035  29.5035  30.8591  30.8591
    31.1331  31.1331  31.2794  31.2794  32.7491  32.7491  34.8988  34.8988
    35.7192  35.7192  35.8863  35.8863  36.2822  36.2822  36.4643  36.4643
    36.7465  36.7465  36.7505  36.7505  36.7994  36.7994  37.0995  37.0995
    37.6037  37.6037  37.6217  37.6217  38.0838  38.0838  38.4361  38.4361
    38.7588  38.7588  39.8778  39.8778  39.9384  39.9384  40.1514  40.1514
    40.3719  40.3719  40.6258  40.6258  40.6870  40.6870  40.8997  40.8997
    41.0404  41.0404  41.1423  41.1423  41.2427  41.2427  41.6303  41.6303
    41.9938  41.9938  42.3574  42.3574  43.2047  43.2047  43.2838  43.2838
    43.3965  43.3965  43.8809  43.8809  44.0567  44.0567  44.3518  44.3518
    44.7835  44.7835  45.2298  45.2298  45.3991  45.3991  46.0584  46.0584
    46.3313  46.3313  46.9756  46.9756  47.1154  47.1154  47.6891  47.6891
    47.9304  47.9304  47.9556  47.9556  48.5855  48.5855  48.7755  48.7755
    48.9032  48.9032  49.4247  49.4247  49.7933  49.7933  49.8192  49.8192
    50.1691  50.1691  50.5409  50.5409  50.5755  50.5755  50.6435  50.6435
    51.0778  51.0778  51.1447  51.1447  51.1847  51.1847  51.7296  51.7296
    52.3331  52.3331  52.4038  52.4038  52.5430  52.5430  52.9281  52.9281
    53.4482  53.4482  53.4687  53.4687  53.5348  53.5348  54.2967  54.2967
    54.4947  54.4947  54.5272  54.5272  54.6054  54.6054  55.0286  55.0286
    55.0403  55.0403  55.1686  55.1686  55.5515  55.5515  55.6676  55.6676
    55.7018  55.7018  56.1395  56.1395  56.2962  56.2962  56.4006  56.4006
    56.6187  56.6187  56.9443  56.9443  57.1589  57.1589  57.3364  57.3364
    57.3894  57.3894  58.1754  58.1754  58.2830  58.2830  58.6376  58.6376
    58.7381  58.7381  58.8196  58.8196  58.8959  58.8959  58.9224  58.9224
    59.7541  59.7541  59.9649  59.9649  60.2769  60.2769  60.3844  60.3844
    61.5671  61.5671  61.7561  61.7561  62.0606  62.0606  62.4374  62.4374
    62.6078  62.6078  62.6271  62.6271  63.0469  63.0469  63.3354  63.3354
    63.8909  63.8909  63.8955  63.8955  64.8126  64.8126  65.0571  65.0571
    65.1809  65.1809  65.3126  65.3126  65.3260  65.3260  65.8782  65.8782
    66.0768  66.0768  66.2380  66.2380  66.7251  66.7251  67.2001  67.2001
    67.6969  67.6969  67.8837  67.8837  67.9020  67.9020  68.3140  68.3140
    68.9197  68.9197  69.0626  69.0626  69.2261  69.2261  69.6244  69.6244
    69.6544  69.6544  70.0800  70.0800  70.1929  70.1929  70.4710  70.4710
    70.7483  70.7483  71.5628  71.5628  71.6575  71.6575  71.9358  71.9358
    72.0693  72.0693  72.3263  72.3263  72.4658  72.4658  72.8341  72.8341
    73.9676  73.9676  74.1121  74.1121  74.2923  74.2923  75.0090  75.0090
    75.1224  75.1224  75.3245  75.3245  76.5203  76.5203  76.6115  76.6115
    76.6201  76.6201  76.7205  76.7205  76.9432  76.9432  77.3102  77.3102
    78.2519  78.2519  78.2840  78.2840  78.7218  78.7218  79.3348  79.3348
    79.8143  79.8143  79.9867  79.9867  80.4647  80.4647  80.5510  80.5510
    80.7767  80.7767  80.8282  80.8282  81.1260  81.1260  81.2741  81.2741
    81.6522  81.6522  81.7049  81.7049  82.3804  82.3804  82.3920  82.3920
    83.2502  83.2502  83.3018  83.3018  83.5265  83.5265  84.8133  84.8133
    84.8404  84.8404  85.0042  85.0042  85.6858  85.6858  85.7106  85.7106
    85.7792  85.7792  86.7888  86.7888  86.8495  86.8495  86.8541  86.8541
    87.1365  87.1366  87.1575  87.1579

          k = 2.1321 1.2310 0.1469 (  6633 PWs)   bands (ev):

   -37.0241 -37.0241 -37.0203 -37.0203 -37.0054 -37.0054 -36.9992 -36.9992
   -36.7878 -36.7878 -36.7219 -36.7219 -36.1315 -36.1315 -36.1282 -36.1282
   -36.1249 -36.1249 -36.1225 -36.1225 -36.1070 -36.1070 -36.0983 -36.0983
   -35.8967 -35.8967 -35.8732 -35.8732 -35.8117 -35.8117 -13.2042 -13.2042
   -13.2037 -13.2037 -13.1754 -13.1754 -13.1731 -13.1731 -10.2482 -10.2482
   -10.2452 -10.2452 -10.2090 -10.2090 -10.2085 -10.2085 -10.1989 -10.1988
   -10.1954 -10.1954  -3.4123  -3.4122  -3.2761  -3.2761  -1.5911  -1.5911
     1.1026   1.1026   2.9731   2.9731   7.6403   7.6403   7.7988   7.7988
     8.6434   8.6434   9.0051   9.0051   9.2042   9.2042   9.5226   9.5226
    10.3190  10.3190  10.4819  10.4819  11.4139  11.4139  12.0530  12.0530
    13.1223  13.1223  13.6695  13.6695  14.3722  14.3722  14.9873  14.9873
    15.3333  15.3333  16.8987  16.8987  17.6184  17.6185  18.2893  18.2893
    18.9462  18.9462  18.9669  18.9669  19.9628  19.9628  20.2489  20.2489
    20.9283  20.9283  21.1712  21.1712  21.3117  21.3117  21.5966  21.5966
    22.0700  22.0700  22.4115  22.4115  22.9955  22.9955  23.6299  23.6299
    24.6889  24.6889  24.8825  24.8825  25.1559  25.1559  25.8572  25.8572
    26.1598  26.1598  26.3239  26.3239  27.7832  27.7832  27.9294  27.9294
    28.9501  28.9501  29.9781  29.9781  30.0389  30.0389  30.2396  30.2396
    31.7374  31.7374  32.6947  32.6947  33.6908  33.6908  33.9980  33.9980
    34.1262  34.1263  34.4149  34.4149  34.6895  34.6895  34.9441  34.9441
    35.5237  35.5237  35.6467  35.6467  35.9885  35.9885  36.1694  36.1694
    36.5871  36.5871  36.6084  36.6084  36.9242  36.9242  37.6376  37.6376
    38.3128  38.3128  38.8214  38.8214  38.9801  38.9801  39.4149  39.4149
    39.9617  39.9617  40.2950  40.2950  40.6697  40.6697  40.8287  40.8287
    40.9987  40.9988  41.5826  41.5826  41.7855  41.7855  42.0253  42.0253
    42.4570  42.4570  43.4598  43.4598  43.7501  43.7501  44.0112  44.0112
    44.2299  44.2299  44.5018  44.5018  44.8694  44.8694  45.0985  45.0985
    45.2408  45.2408  45.5575  45.5575  46.2007  46.2007  46.2684  46.2684
    46.4114  46.4114  46.4955  46.4955  46.7440  46.7440  47.1114  47.1114
    47.3342  47.3342  47.7098  47.7098  47.8599  47.8599  48.1014  48.1014
    48.4559  48.4559  48.7952  48.7952  49.1891  49.1891  49.3621  49.3621
    49.6244  49.6245  49.9204  49.9204  50.3955  50.3955  50.7091  50.7091
    51.0459  51.0459  51.1927  51.1927  51.3346  51.3346  51.6561  51.6561
    51.9173  51.9173  52.2096  52.2096  52.2105  52.2105  52.6471  52.6471
    53.0382  53.0382  53.1168  53.1168  53.3687  53.3687  53.5736  53.5736
    53.6540  53.6540  53.9689  53.9689  54.4405  54.4405  54.5540  54.5540
    54.9065  54.9065  55.3275  55.3275  55.5692  55.5692  55.6353  55.6353
    55.9255  55.9255  56.4071  56.4071  56.5682  56.5682  56.7128  56.7128
    57.0065  57.0065  57.9687  57.9687  58.0309  58.0309  58.3961  58.3961
    58.7697  58.7697  58.8743  58.8743  59.0066  59.0066  59.1176  59.1176
    59.3859  59.3859  59.9076  59.9076  60.0312  60.0312  60.1047  60.1047
    60.4894  60.4894  60.8177  60.8177  61.0234  61.0234  61.5591  61.5591
    61.6968  61.6968  61.9292  61.9292  62.4450  62.4450  62.6582  62.6582
    62.8970  62.8970  63.3103  63.3103  63.4400  63.4400  63.6447  63.6447
    64.0065  64.0065  64.4508  64.4508  64.9957  64.9957  65.1168  65.1168
    65.2913  65.2913  65.4197  65.4197  65.7219  65.7219  65.9799  65.9799
    66.1197  66.1197  66.8624  66.8624  67.1218  67.1218  67.5412  67.5412
    67.7209  67.7209  67.7458  67.7458  68.0624  68.0624  68.7339  68.7339
    69.3805  69.3805  69.8412  69.8412  70.1765  70.1765  70.3173  70.3173
    70.3525  70.3525  70.6156  70.6156  70.7804  70.7804  71.0722  71.0722
    71.1680  71.1680  71.3548  71.3548  71.9562  71.9562  72.3728  72.3728
    73.2005  73.2005  73.2987  73.2987  73.5029  73.5029  73.8864  73.8864
    74.2788  74.2788  74.7152  74.7152  74.9073  74.9073  75.1819  75.1819
    75.7665  75.7665  76.0619  76.0619  76.1947  76.1947  76.4310  76.4310
    76.5581  76.5581  76.6234  76.6234  76.6534  76.6534  77.0943  77.0943
    77.7206  77.7206  78.2528  78.2528  78.4345  78.4345  78.6812  78.6812
    78.7853  78.7853  79.0347  79.0347  79.1547  79.1547  80.2155  80.2155
    80.6356  80.6356  80.9413  80.9413  81.1788  81.1788  81.2581  81.2581
    81.5246  81.5246  81.6975  81.6975  82.0454  82.0454  82.0792  82.0792
    82.2975  82.2975  82.4498  82.4498  82.8024  82.8024  83.2363  83.2363
    83.6466  83.6466  83.7152  83.7152  84.1003  84.1003  84.3415  84.3415
    84.6165  84.6165  85.0603  85.0603  85.1529  85.1529  85.5405  85.5405
    85.6815  85.6815  86.1207  86.1211

     the Fermi energy is    11.6424 ev

!    total energy              =   -1054.62054515 Ry
     estimated scf accuracy    <          3.2E-09 Ry
     smearing contrib. (-TS)   =      -0.00001741 Ry
     internal energy E=F+TS    =   -1054.62052775 Ry

     The total energy is F=E-TS. E is the sum of the following terms:
     one-electron contribution =    -469.87970995 Ry
     hartree contribution      =     267.91258181 Ry
     xc contribution           =    -231.51710407 Ry
     ewald contribution        =    -621.13629555 Ry

     convergence has been achieved in  10 iterations

     Writing all to output data dir ./outdir/Bi2Se3.save/

     init_run     :   2666.34s CPU    699.24s WALL (       1 calls)
     electrons    :  84533.70s CPU  21591.32s WALL (       1 calls)

     Called by init_run:
     wfcinit      :   2658.83s CPU    696.12s WALL (       1 calls)
     potinit      :      3.72s CPU      1.33s WALL (       1 calls)
     hinit0       :      3.69s CPU      1.69s WALL (       1 calls)

     Called by electrons:
     c_bands      :  66465.68s CPU  16996.05s WALL (      11 calls)
     sum_band     :  18040.90s CPU   4586.60s WALL (      11 calls)
     v_of_rho     :     15.72s CPU      5.11s WALL (      11 calls)
     mix_rho      :      6.31s CPU      1.84s WALL (      11 calls)

     Called by c_bands:
     init_us_2    :      6.98s CPU      3.85s WALL (    1012 calls)
     init_us_2:cp :      6.97s CPU      3.85s WALL (    1012 calls)
     cegterg      :  66301.75s CPU  16951.33s WALL (     484 calls)

     Called by *egterg:
     cdiaghg      :   1113.32s CPU    483.89s WALL (    1462 calls)
     h_psi        :  64211.45s CPU  16255.73s WALL (    1550 calls)
     g_psi        :     54.28s CPU     10.72s WALL (    1022 calls)

     Called by h_psi:
     h_psi:calbec :    290.69s CPU     66.02s WALL (    1550 calls)
     vloc_psi     :  63630.24s CPU  16111.48s WALL (    1550 calls)
     add_vuspsi   :    218.60s CPU     59.23s WALL (    1550 calls)

     General routines
     calbec       :    290.67s CPU     66.02s WALL (    1550 calls)
     fft          :     15.69s CPU      4.53s WALL (     221 calls)
     ffts         :      2.45s CPU      0.89s WALL (      88 calls)
     fftw         :  52062.02s CPU  13269.51s WALL ( 2746368 calls)
     interpolate  :      6.20s CPU      1.90s WALL (      44 calls)

     Parallel routines

     PWSCF        :   1d 0h13m CPU      6h11m WALL


   This run was terminated on:   3:51:39  18Oct2022            

=------------------------------------------------------------------------------=
   JOB DONE.
=------------------------------------------------------------------------------=
