
     Program BANDS v.7.1 starts on 27Sep2022 at 11:35:55 
        Git branch: all_p_qe-7.1
        Last git commit: dd47c7cefdecbd709fdf0aca11e8032bbaf853f4-dirty
        Last git commit date: Tue Sep 27 10:55:06 2022 -0300
        Last git commit subject: nothing

     This program is part of the open-source Quantum ESPRESSO suite
     for quantum simulation of materials; please cite
         "P. Giannozzi et al., J. Phys.:Condens. Matter 21 395502 (2009);
         "P. Giannozzi et al., J. Phys.:Condens. Matter 29 465901 (2017);
         "P. Giannozzi et al., J. Chem. Phys. 152 154105 (2020);
          URL http://www.quantum-espresso.org", 
     in publications or presentations arising from this work. More details at
     http://www.quantum-espresso.org/quote

     Parallel version (MPI), running on     1 processors

     MPI processes distributed on     1 nodes
     6738 MiB available memory on the printing compute node when the environment starts


     Reading xml data from directory:

     ./outdir/GaAs.save/
     Message from routine qes_read:control_variablesType:
     fcp: wrong number of occurrences
     Message from routine qes_read:control_variablesType:
     rism: wrong number of occurrences
     Message from routine qexsd_readschema :
     input info not found or not readable in xml file

     IMPORTANT: XC functional enforced from input :
     Exchange-correlation= PBE
                           (   1   4   3   4   0   0   0)
     Any further DFT definition will be discarded
     Please, verify this is what you really want


     G-vector sticks info
     --------------------
     sticks:   dense  smooth     PW     G-vecs:    dense   smooth      PW
     Sum        1177    1177    439                26717    26717    6183

     Using Slab Decomposition

     Reading collected, re-writing distributed wavefunctions
     high-symmetry point:  0.5000 0.5000 0.5000   x coordinate   0.0000
     high-symmetry point:  0.0000 0.0000 0.0000   x coordinate   0.8660
     high-symmetry point:  0.7500 0.7500 0.0000   x coordinate   1.9267

     Plottable bands (eV) written to file bands.gnu
     Bands written to file bands

     BANDS        :      5.33s CPU      4.68s WALL


   This run was terminated on:  11:35:59  27Sep2022            

=------------------------------------------------------------------------------=
   JOB DONE.
=------------------------------------------------------------------------------=
